s 0.018570421 _5_ MAC  --- 0 message 39 [0 ffffffff 5 800] [energy 99.999976 ei 0.000 es 0.000 et 0.000 er 0.000] ------- [5:255 -1:255 32 0] 
N -t 0.018570 -n 4 -e 99.999936
N -t 0.018570 -n 15 -e 99.999936
N -t 0.018570 -n 6 -e 99.999936
N -t 0.018571 -n 14 -e 99.999936
N -t 0.018571 -n 16 -e 99.999936
r 0.020650488 _4_ MAC  --- 0 message 32 [0 ffffffff 5 800] [energy 99.999936 ei 0.000 es 0.000 et 0.000 er 0.000] ------- [5:255 -1:255 32 0] 
r 0.020650488 _15_ MAC  --- 0 message 32 [0 ffffffff 5 800] [energy 99.999936 ei 0.000 es 0.000 et 0.000 er 0.000] ------- [5:255 -1:255 32 0] 
r 0.020650488 _6_ MAC  --- 0 message 32 [0 ffffffff 5 800] [energy 99.999936 ei 0.000 es 0.000 et 0.000 er 0.000] ------- [5:255 -1:255 32 0] 
r 0.020650516 _14_ MAC  --- 0 message 32 [0 ffffffff 5 800] [energy 99.999936 ei 0.000 es 0.000 et 0.000 er 0.000] ------- [5:255 -1:255 32 0] 
r 0.020650516 _16_ MAC  --- 0 message 32 [0 ffffffff 5 800] [energy 99.999936 ei 0.000 es 0.000 et 0.000 er 0.000] ------- [5:255 -1:255 32 0] 
s 0.050105336 _0_ MAC  --- 1 message 39 [0 ffffffff 0 800] [energy 99.999953 ei 0.000 es 0.000 et 0.000 er 0.000] ------- [0:255 -1:255 32 0] 
N -t 0.050105 -n 10 -e 99.999914
N -t 0.050105 -n 1 -e 99.999914
N -t 0.050105 -n 11 -e 99.999914
r 0.052185402 _10_ MAC  --- 1 message 32 [0 ffffffff 0 800] [energy 99.999914 ei 0.000 es 0.000 et 0.000 er 0.000] ------- [0:255 -1:255 32 0] 
r 0.052185402 _1_ MAC  --- 1 message 32 [0 ffffffff 0 800] [energy 99.999914 ei 0.000 es 0.000 et 0.000 er 0.000] ------- [0:255 -1:255 32 0] 
r 0.052185430 _11_ MAC  --- 1 message 32 [0 ffffffff 0 800] [energy 99.999914 ei 0.000 es 0.000 et 0.000 er 0.000] ------- [0:255 -1:255 32 0] 
s 0.071143271 _67_ MAC  --- 2 message 39 [0 ffffffff 43 800] [energy 99.999938 ei 0.000 es 0.000 et 0.000 er 0.000] ------- [67:255 -1:255 32 0] 
N -t 0.071143 -n 57 -e 99.999899
N -t 0.071143 -n 66 -e 99.999899
N -t 0.071143 -n 77 -e 99.999899
N -t 0.071143 -n 68 -e 99.999899
N -t 0.071143 -n 76 -e 99.999899
N -t 0.071143 -n 56 -e 99.999899
N -t 0.071143 -n 58 -e 99.999899
N -t 0.071143 -n 78 -e 99.999899
r 0.073223338 _57_ MAC  --- 2 message 32 [0 ffffffff 43 800] [energy 99.999899 ei 0.000 es 0.000 et 0.000 er 0.000] ------- [67:255 -1:255 32 0] 
r 0.073223338 _66_ MAC  --- 2 message 32 [0 ffffffff 43 800] [energy 99.999899 ei 0.000 es 0.000 et 0.000 er 0.000] ------- [67:255 -1:255 32 0] 
r 0.073223338 _77_ MAC  --- 2 message 32 [0 ffffffff 43 800] [energy 99.999899 ei 0.000 es 0.000 et 0.000 er 0.000] ------- [67:255 -1:255 32 0] 
r 0.073223338 _68_ MAC  --- 2 message 32 [0 ffffffff 43 800] [energy 99.999899 ei 0.000 es 0.000 et 0.000 er 0.000] ------- [67:255 -1:255 32 0] 
r 0.073223365 _76_ MAC  --- 2 message 32 [0 ffffffff 43 800] [energy 99.999899 ei 0.000 es 0.000 et 0.000 er 0.000] ------- [67:255 -1:255 32 0] 
r 0.073223365 _56_ MAC  --- 2 message 32 [0 ffffffff 43 800] [energy 99.999899 ei 0.000 es 0.000 et 0.000 er 0.000] ------- [67:255 -1:255 32 0] 
r 0.073223365 _58_ MAC  --- 2 message 32 [0 ffffffff 43 800] [energy 99.999899 ei 0.000 es 0.000 et 0.000 er 0.000] ------- [67:255 -1:255 32 0] 
r 0.073223365 _78_ MAC  --- 2 message 32 [0 ffffffff 43 800] [energy 99.999899 ei 0.000 es 0.000 et 0.000 er 0.000] ------- [67:255 -1:255 32 0] 
s 0.081360631 _21_ MAC  --- 3 message 39 [0 ffffffff 15 800] [energy 99.999931 ei 0.000 es 0.000 et 0.000 er 0.000] ------- [21:255 -1:255 32 0] 
N -t 0.081361 -n 11 -e 99.999841
N -t 0.081361 -n 20 -e 99.999891
N -t 0.081361 -n 31 -e 99.999891
N -t 0.081361 -n 22 -e 99.999891
N -t 0.081361 -n 30 -e 99.999891
N -t 0.081361 -n 10 -e 99.999841
N -t 0.081361 -n 12 -e 99.999891
N -t 0.081361 -n 32 -e 99.999891
s 0.083070454 _12_ MAC  --- 4 message 39 [0 ffffffff c 800] [energy 99.999869 ei 0.000 es 0.000 et 0.000 er 0.000] ------- [12:255 -1:255 32 0] 
N -t 0.083071 -n 2 -e 99.999890
N -t 0.083071 -n 11 -e 99.999790
N -t 0.083071 -n 22 -e 99.999840
N -t 0.083071 -n 13 -e 99.999890
N -t 0.083071 -n 21 -e 99.999835
N -t 0.083071 -n 1 -e 99.999840
N -t 0.083071 -n 3 -e 99.999890
N -t 0.083071 -n 23 -e 99.999890
r 0.083440698 _11_ MAC  --- 3 message 32 [0 ffffffff 15 800] [energy 99.999790 ei 0.000 es 0.000 et 0.000 er 0.000] ------- [21:255 -1:255 32 0] 
r 0.083440698 _20_ MAC  --- 3 message 32 [0 ffffffff 15 800] [energy 99.999891 ei 0.000 es 0.000 et 0.000 er 0.000] ------- [21:255 -1:255 32 0] 
r 0.083440698 _31_ MAC  --- 3 message 32 [0 ffffffff 15 800] [energy 99.999891 ei 0.000 es 0.000 et 0.000 er 0.000] ------- [21:255 -1:255 32 0] 
r 0.083440698 _22_ MAC  --- 3 message 32 [0 ffffffff 15 800] [energy 99.999840 ei 0.000 es 0.000 et 0.000 er 0.000] ------- [21:255 -1:255 32 0] 
r 0.083440725 _30_ MAC  --- 3 message 32 [0 ffffffff 15 800] [energy 99.999891 ei 0.000 es 0.000 et 0.000 er 0.000] ------- [21:255 -1:255 32 0] 
r 0.083440725 _10_ MAC  --- 3 message 32 [0 ffffffff 15 800] [energy 99.999841 ei 0.000 es 0.000 et 0.000 er 0.000] ------- [21:255 -1:255 32 0] 
r 0.083440725 _12_ MAC  --- 3 message 32 [0 ffffffff 15 800] [energy 99.999824 ei 0.000 es 0.000 et 0.000 er 0.000] ------- [21:255 -1:255 32 0] 
r 0.083440725 _32_ MAC  --- 3 message 32 [0 ffffffff 15 800] [energy 99.999891 ei 0.000 es 0.000 et 0.000 er 0.000] ------- [21:255 -1:255 32 0] 
r 0.085150521 _2_ MAC  --- 4 message 32 [0 ffffffff c 800] [energy 99.999890 ei 0.000 es 0.000 et 0.000 er 0.000] ------- [12:255 -1:255 32 0] 
r 0.085150521 _11_ MAC  --- 4 message 32 [0 ffffffff c 800] [energy 99.999790 ei 0.000 es 0.000 et 0.000 er 0.000] ------- [12:255 -1:255 32 0] 
r 0.085150521 _22_ MAC  --- 4 message 32 [0 ffffffff c 800] [energy 99.999840 ei 0.000 es 0.000 et 0.000 er 0.000] ------- [12:255 -1:255 32 0] 
r 0.085150521 _13_ MAC  --- 4 message 32 [0 ffffffff c 800] [energy 99.999890 ei 0.000 es 0.000 et 0.000 er 0.000] ------- [12:255 -1:255 32 0] 
r 0.085150548 _21_ MAC  --- 4 message 32 [0 ffffffff c 800] [energy 99.999835 ei 0.000 es 0.000 et 0.000 er 0.000] ------- [12:255 -1:255 32 0] 
r 0.085150548 _1_ MAC  --- 4 message 32 [0 ffffffff c 800] [energy 99.999840 ei 0.000 es 0.000 et 0.000 er 0.000] ------- [12:255 -1:255 32 0] 
r 0.085150548 _3_ MAC  --- 4 message 32 [0 ffffffff c 800] [energy 99.999890 ei 0.000 es 0.000 et 0.000 er 0.000] ------- [12:255 -1:255 32 0] 
r 0.085150548 _23_ MAC  --- 4 message 32 [0 ffffffff c 800] [energy 99.999890 ei 0.000 es 0.000 et 0.000 er 0.000] ------- [12:255 -1:255 32 0] 
s 0.099972643 _92_ MAC  --- 5 message 39 [0 ffffffff 5c 800] [energy 99.999918 ei 0.000 es 0.000 et 0.000 er 0.000] ------- [92:255 -1:255 32 0] 
N -t 0.099973 -n 82 -e 99.999878
N -t 0.099973 -n 91 -e 99.999878
N -t 0.099973 -n 93 -e 99.999878
N -t 0.099973 -n 81 -e 99.999878
N -t 0.099973 -n 83 -e 99.999878
r 0.102052709 _82_ MAC  --- 5 message 32 [0 ffffffff 5c 800] [energy 99.999878 ei 0.000 es 0.000 et 0.000 er 0.000] ------- [92:255 -1:255 32 0] 
r 0.102052709 _91_ MAC  --- 5 message 32 [0 ffffffff 5c 800] [energy 99.999878 ei 0.000 es 0.000 et 0.000 er 0.000] ------- [92:255 -1:255 32 0] 
r 0.102052709 _93_ MAC  --- 5 message 32 [0 ffffffff 5c 800] [energy 99.999878 ei 0.000 es 0.000 et 0.000 er 0.000] ------- [92:255 -1:255 32 0] 
r 0.102052737 _81_ MAC  --- 5 message 32 [0 ffffffff 5c 800] [energy 99.999878 ei 0.000 es 0.000 et 0.000 er 0.000] ------- [92:255 -1:255 32 0] 
r 0.102052737 _83_ MAC  --- 5 message 32 [0 ffffffff 5c 800] [energy 99.999878 ei 0.000 es 0.000 et 0.000 er 0.000] ------- [92:255 -1:255 32 0] 
s 0.118412320 _27_ MAC  --- 6 message 39 [0 ffffffff 1b 800] [energy 99.999905 ei 0.000 es 0.000 et 0.000 er 0.000] ------- [27:255 -1:255 32 0] 
N -t 0.118412 -n 17 -e 99.999865
N -t 0.118412 -n 26 -e 99.999865
N -t 0.118412 -n 37 -e 99.999865
N -t 0.118412 -n 28 -e 99.999865
N -t 0.118412 -n 36 -e 99.999865
N -t 0.118412 -n 16 -e 99.999815
N -t 0.118412 -n 18 -e 99.999865
N -t 0.118412 -n 38 -e 99.999865
r 0.120492386 _17_ MAC  --- 6 message 32 [0 ffffffff 1b 800] [energy 99.999865 ei 0.000 es 0.000 et 0.000 er 0.000] ------- [27:255 -1:255 32 0] 
r 0.120492386 _26_ MAC  --- 6 message 32 [0 ffffffff 1b 800] [energy 99.999865 ei 0.000 es 0.000 et 0.000 er 0.000] ------- [27:255 -1:255 32 0] 
r 0.120492386 _37_ MAC  --- 6 message 32 [0 ffffffff 1b 800] [energy 99.999865 ei 0.000 es 0.000 et 0.000 er 0.000] ------- [27:255 -1:255 32 0] 
r 0.120492386 _28_ MAC  --- 6 message 32 [0 ffffffff 1b 800] [energy 99.999865 ei 0.000 es 0.000 et 0.000 er 0.000] ------- [27:255 -1:255 32 0] 
r 0.120492414 _36_ MAC  --- 6 message 32 [0 ffffffff 1b 800] [energy 99.999865 ei 0.000 es 0.000 et 0.000 er 0.000] ------- [27:255 -1:255 32 0] 
r 0.120492414 _16_ MAC  --- 6 message 32 [0 ffffffff 1b 800] [energy 99.999815 ei 0.000 es 0.000 et 0.000 er 0.000] ------- [27:255 -1:255 32 0] 
r 0.120492414 _18_ MAC  --- 6 message 32 [0 ffffffff 1b 800] [energy 99.999865 ei 0.000 es 0.000 et 0.000 er 0.000] ------- [27:255 -1:255 32 0] 
r 0.120492414 _38_ MAC  --- 6 message 32 [0 ffffffff 1b 800] [energy 99.999865 ei 0.000 es 0.000 et 0.000 er 0.000] ------- [27:255 -1:255 32 0] 
s 0.136244763 _44_ MAC  --- 7 message 39 [0 ffffffff 2c 800] [energy 99.999892 ei 0.000 es 0.000 et 0.000 er 0.000] ------- [44:255 -1:255 32 0] 
N -t 0.136245 -n 34 -e 99.999852
N -t 0.136245 -n 43 -e 99.999852
N -t 0.136245 -n 54 -e 99.999852
N -t 0.136245 -n 45 -e 99.999852
N -t 0.136245 -n 53 -e 99.999852
N -t 0.136245 -n 33 -e 99.999852
N -t 0.136245 -n 35 -e 99.999852
N -t 0.136245 -n 55 -e 99.999852
r 0.138324829 _34_ MAC  --- 7 message 32 [0 ffffffff 2c 800] [energy 99.999852 ei 0.000 es 0.000 et 0.000 er 0.000] ------- [44:255 -1:255 32 0] 
r 0.138324829 _43_ MAC  --- 7 message 32 [0 ffffffff 2c 800] [energy 99.999852 ei 0.000 es 0.000 et 0.000 er 0.000] ------- [44:255 -1:255 32 0] 
r 0.138324829 _54_ MAC  --- 7 message 32 [0 ffffffff 2c 800] [energy 99.999852 ei 0.000 es 0.000 et 0.000 er 0.000] ------- [44:255 -1:255 32 0] 
r 0.138324829 _45_ MAC  --- 7 message 32 [0 ffffffff 2c 800] [energy 99.999852 ei 0.000 es 0.000 et 0.000 er 0.000] ------- [44:255 -1:255 32 0] 
r 0.138324857 _53_ MAC  --- 7 message 32 [0 ffffffff 2c 800] [energy 99.999852 ei 0.000 es 0.000 et 0.000 er 0.000] ------- [44:255 -1:255 32 0] 
r 0.138324857 _33_ MAC  --- 7 message 32 [0 ffffffff 2c 800] [energy 99.999852 ei 0.000 es 0.000 et 0.000 er 0.000] ------- [44:255 -1:255 32 0] 
r 0.138324857 _35_ MAC  --- 7 message 32 [0 ffffffff 2c 800] [energy 99.999852 ei 0.000 es 0.000 et 0.000 er 0.000] ------- [44:255 -1:255 32 0] 
r 0.138324857 _55_ MAC  --- 7 message 32 [0 ffffffff 2c 800] [energy 99.999852 ei 0.000 es 0.000 et 0.000 er 0.000] ------- [44:255 -1:255 32 0] 
s 0.138523859 _68_ MAC  --- 8 message 39 [0 ffffffff 44 800] [energy 99.999841 ei 0.000 es 0.000 et 0.000 er 0.000] ------- [68:255 -1:255 32 0] 
N -t 0.138524 -n 58 -e 99.999801
N -t 0.138524 -n 67 -e 99.999795
N -t 0.138524 -n 78 -e 99.999801
N -t 0.138524 -n 69 -e 99.999851
N -t 0.138524 -n 77 -e 99.999801
N -t 0.138524 -n 57 -e 99.999801
N -t 0.138524 -n 59 -e 99.999851
N -t 0.138524 -n 79 -e 99.999851
r 0.140603926 _58_ MAC  --- 8 message 32 [0 ffffffff 44 800] [energy 99.999801 ei 0.000 es 0.000 et 0.000 er 0.000] ------- [68:255 -1:255 32 0] 
r 0.140603926 _67_ MAC  --- 8 message 32 [0 ffffffff 44 800] [energy 99.999795 ei 0.000 es 0.000 et 0.000 er 0.000] ------- [68:255 -1:255 32 0] 
r 0.140603926 _78_ MAC  --- 8 message 32 [0 ffffffff 44 800] [energy 99.999801 ei 0.000 es 0.000 et 0.000 er 0.000] ------- [68:255 -1:255 32 0] 
r 0.140603926 _69_ MAC  --- 8 message 32 [0 ffffffff 44 800] [energy 99.999851 ei 0.000 es 0.000 et 0.000 er 0.000] ------- [68:255 -1:255 32 0] 
r 0.140603954 _77_ MAC  --- 8 message 32 [0 ffffffff 44 800] [energy 99.999801 ei 0.000 es 0.000 et 0.000 er 0.000] ------- [68:255 -1:255 32 0] 
r 0.140603954 _57_ MAC  --- 8 message 32 [0 ffffffff 44 800] [energy 99.999801 ei 0.000 es 0.000 et 0.000 er 0.000] ------- [68:255 -1:255 32 0] 
r 0.140603954 _59_ MAC  --- 8 message 32 [0 ffffffff 44 800] [energy 99.999851 ei 0.000 es 0.000 et 0.000 er 0.000] ------- [68:255 -1:255 32 0] 
r 0.140603954 _79_ MAC  --- 8 message 32 [0 ffffffff 44 800] [energy 99.999851 ei 0.000 es 0.000 et 0.000 er 0.000] ------- [68:255 -1:255 32 0] 
s 0.146623353 _59_ MAC  --- 9 message 39 [0 ffffffff 3b 800] [energy 99.999835 ei 0.000 es 0.000 et 0.000 er 0.000] ------- [59:255 -1:255 32 0] 
N -t 0.146623 -n 49 -e 99.999845
N -t 0.146623 -n 58 -e 99.999745
N -t 0.146623 -n 69 -e 99.999795
N -t 0.146623 -n 68 -e 99.999740
N -t 0.146623 -n 48 -e 99.999845
r 0.148703419 _49_ MAC  --- 9 message 32 [0 ffffffff 3b 800] [energy 99.999845 ei 0.000 es 0.000 et 0.000 er 0.000] ------- [59:255 -1:255 32 0] 
r 0.148703419 _58_ MAC  --- 9 message 32 [0 ffffffff 3b 800] [energy 99.999745 ei 0.000 es 0.000 et 0.000 er 0.000] ------- [59:255 -1:255 32 0] 
r 0.148703419 _69_ MAC  --- 9 message 32 [0 ffffffff 3b 800] [energy 99.999795 ei 0.000 es 0.000 et 0.000 er 0.000] ------- [59:255 -1:255 32 0] 
r 0.148703447 _68_ MAC  --- 9 message 32 [0 ffffffff 3b 800] [energy 99.999740 ei 0.000 es 0.000 et 0.000 er 0.000] ------- [59:255 -1:255 32 0] 
r 0.148703447 _48_ MAC  --- 9 message 32 [0 ffffffff 3b 800] [energy 99.999845 ei 0.000 es 0.000 et 0.000 er 0.000] ------- [59:255 -1:255 32 0] 
s 0.160575817 _90_ MAC  --- 11 message 39 [0 ffffffff 5a 800] [energy 99.999875 ei 0.000 es 0.000 et 0.000 er 0.000] ------- [90:255 -1:255 32 0] 
N -t 0.160576 -n 80 -e 99.999835
N -t 0.160576 -n 91 -e 99.999785
N -t 0.160576 -n 81 -e 99.999785
s 0.160805169 _94_ MAC  --- 10 message 39 [0 ffffffff 5e 800] [energy 99.999875 ei 0.000 es 0.000 et 0.000 er 0.000] ------- [94:255 -1:255 32 0] 
N -t 0.160805 -n 84 -e 99.999835
N -t 0.160805 -n 93 -e 99.999785
N -t 0.160805 -n 95 -e 99.999835
N -t 0.160805 -n 83 -e 99.999785
N -t 0.160805 -n 85 -e 99.999835
r 0.162655884 _80_ MAC  --- 11 message 32 [0 ffffffff 5a 800] [energy 99.999835 ei 0.000 es 0.000 et 0.000 er 0.000] ------- [90:255 -1:255 32 0] 
r 0.162655884 _91_ MAC  --- 11 message 32 [0 ffffffff 5a 800] [energy 99.999785 ei 0.000 es 0.000 et 0.000 er 0.000] ------- [90:255 -1:255 32 0] 
r 0.162655912 _81_ MAC  --- 11 message 32 [0 ffffffff 5a 800] [energy 99.999785 ei 0.000 es 0.000 et 0.000 er 0.000] ------- [90:255 -1:255 32 0] 
r 0.162885236 _84_ MAC  --- 10 message 32 [0 ffffffff 5e 800] [energy 99.999835 ei 0.000 es 0.000 et 0.000 er 0.000] ------- [94:255 -1:255 32 0] 
r 0.162885236 _93_ MAC  --- 10 message 32 [0 ffffffff 5e 800] [energy 99.999785 ei 0.000 es 0.000 et 0.000 er 0.000] ------- [94:255 -1:255 32 0] 
r 0.162885236 _95_ MAC  --- 10 message 32 [0 ffffffff 5e 800] [energy 99.999835 ei 0.000 es 0.000 et 0.000 er 0.000] ------- [94:255 -1:255 32 0] 
r 0.162885263 _83_ MAC  --- 10 message 32 [0 ffffffff 5e 800] [energy 99.999785 ei 0.000 es 0.000 et 0.000 er 0.000] ------- [94:255 -1:255 32 0] 
r 0.162885263 _85_ MAC  --- 10 message 32 [0 ffffffff 5e 800] [energy 99.999835 ei 0.000 es 0.000 et 0.000 er 0.000] ------- [94:255 -1:255 32 0] 
s 0.167673470 _70_ MAC  --- 12 message 39 [0 ffffffff 46 800] [energy 99.999870 ei 0.000 es 0.000 et 0.000 er 0.000] ------- [70:255 -1:255 32 0] 
N -t 0.167674 -n 60 -e 99.999830
N -t 0.167674 -n 80 -e 99.999780
N -t 0.167674 -n 71 -e 99.999830
N -t 0.167674 -n 61 -e 99.999830
N -t 0.167674 -n 81 -e 99.999730
r 0.169753537 _60_ MAC  --- 12 message 32 [0 ffffffff 46 800] [energy 99.999830 ei 0.000 es 0.000 et 0.000 er 0.000] ------- [70:255 -1:255 32 0] 
r 0.169753537 _80_ MAC  --- 12 message 32 [0 ffffffff 46 800] [energy 99.999780 ei 0.000 es 0.000 et 0.000 er 0.000] ------- [70:255 -1:255 32 0] 
r 0.169753537 _71_ MAC  --- 12 message 32 [0 ffffffff 46 800] [energy 99.999830 ei 0.000 es 0.000 et 0.000 er 0.000] ------- [70:255 -1:255 32 0] 
r 0.169753564 _61_ MAC  --- 12 message 32 [0 ffffffff 46 800] [energy 99.999830 ei 0.000 es 0.000 et 0.000 er 0.000] ------- [70:255 -1:255 32 0] 
r 0.169753564 _81_ MAC  --- 12 message 32 [0 ffffffff 46 800] [energy 99.999730 ei 0.000 es 0.000 et 0.000 er 0.000] ------- [70:255 -1:255 32 0] 
s 0.171213834 _87_ MAC  --- 13 message 39 [0 ffffffff 57 800] [energy 99.999867 ei 0.000 es 0.000 et 0.000 er 0.000] ------- [87:255 -1:255 32 0] 
N -t 0.171214 -n 77 -e 99.999728
N -t 0.171214 -n 86 -e 99.999827
N -t 0.171214 -n 97 -e 99.999827
N -t 0.171214 -n 88 -e 99.999827
N -t 0.171214 -n 96 -e 99.999827
N -t 0.171214 -n 76 -e 99.999778
N -t 0.171214 -n 78 -e 99.999728
N -t 0.171214 -n 98 -e 99.999827
r 0.173293901 _77_ MAC  --- 13 message 32 [0 ffffffff 57 800] [energy 99.999728 ei 0.000 es 0.000 et 0.000 er 0.000] ------- [87:255 -1:255 32 0] 
r 0.173293901 _86_ MAC  --- 13 message 32 [0 ffffffff 57 800] [energy 99.999827 ei 0.000 es 0.000 et 0.000 er 0.000] ------- [87:255 -1:255 32 0] 
r 0.173293901 _97_ MAC  --- 13 message 32 [0 ffffffff 57 800] [energy 99.999827 ei 0.000 es 0.000 et 0.000 er 0.000] ------- [87:255 -1:255 32 0] 
r 0.173293901 _88_ MAC  --- 13 message 32 [0 ffffffff 57 800] [energy 99.999827 ei 0.000 es 0.000 et 0.000 er 0.000] ------- [87:255 -1:255 32 0] 
r 0.173293928 _96_ MAC  --- 13 message 32 [0 ffffffff 57 800] [energy 99.999827 ei 0.000 es 0.000 et 0.000 er 0.000] ------- [87:255 -1:255 32 0] 
r 0.173293928 _76_ MAC  --- 13 message 32 [0 ffffffff 57 800] [energy 99.999778 ei 0.000 es 0.000 et 0.000 er 0.000] ------- [87:255 -1:255 32 0] 
r 0.173293928 _78_ MAC  --- 13 message 32 [0 ffffffff 57 800] [energy 99.999728 ei 0.000 es 0.000 et 0.000 er 0.000] ------- [87:255 -1:255 32 0] 
r 0.173293928 _98_ MAC  --- 13 message 32 [0 ffffffff 57 800] [energy 99.999827 ei 0.000 es 0.000 et 0.000 er 0.000] ------- [87:255 -1:255 32 0] 
s 0.199269603 _86_ MAC  --- 14 message 39 [0 ffffffff 56 800] [energy 99.999797 ei 0.000 es 0.000 et 0.000 er 0.000] ------- [86:255 -1:255 32 0] 
N -t 0.199270 -n 76 -e 99.999708
N -t 0.199270 -n 85 -e 99.999758
N -t 0.199270 -n 96 -e 99.999758
N -t 0.199270 -n 87 -e 99.999752
N -t 0.199270 -n 95 -e 99.999758
N -t 0.199270 -n 75 -e 99.999807
N -t 0.199270 -n 77 -e 99.999658
N -t 0.199270 -n 97 -e 99.999758
r 0.201349669 _76_ MAC  --- 14 message 32 [0 ffffffff 56 800] [energy 99.999708 ei 0.000 es 0.000 et 0.000 er 0.000] ------- [86:255 -1:255 32 0] 
r 0.201349669 _85_ MAC  --- 14 message 32 [0 ffffffff 56 800] [energy 99.999758 ei 0.000 es 0.000 et 0.000 er 0.000] ------- [86:255 -1:255 32 0] 
r 0.201349669 _96_ MAC  --- 14 message 32 [0 ffffffff 56 800] [energy 99.999758 ei 0.000 es 0.000 et 0.000 er 0.000] ------- [86:255 -1:255 32 0] 
r 0.201349669 _87_ MAC  --- 14 message 32 [0 ffffffff 56 800] [energy 99.999752 ei 0.000 es 0.000 et 0.000 er 0.000] ------- [86:255 -1:255 32 0] 
r 0.201349697 _95_ MAC  --- 14 message 32 [0 ffffffff 56 800] [energy 99.999758 ei 0.000 es 0.000 et 0.000 er 0.000] ------- [86:255 -1:255 32 0] 
r 0.201349697 _75_ MAC  --- 14 message 32 [0 ffffffff 56 800] [energy 99.999807 ei 0.000 es 0.000 et 0.000 er 0.000] ------- [86:255 -1:255 32 0] 
r 0.201349697 _77_ MAC  --- 14 message 32 [0 ffffffff 56 800] [energy 99.999658 ei 0.000 es 0.000 et 0.000 er 0.000] ------- [86:255 -1:255 32 0] 
r 0.201349697 _97_ MAC  --- 14 message 32 [0 ffffffff 56 800] [energy 99.999758 ei 0.000 es 0.000 et 0.000 er 0.000] ------- [86:255 -1:255 32 0] 
s 0.262230619 _26_ MAC  --- 16 message 39 [0 ffffffff 1a 800] [energy 99.999753 ei 0.000 es 0.000 et 0.000 er 0.000] ------- [26:255 -1:255 32 0] 
N -t 0.262231 -n 16 -e 99.999663
N -t 0.262231 -n 25 -e 99.999762
N -t 0.262231 -n 36 -e 99.999713
N -t 0.262231 -n 27 -e 99.999707
N -t 0.262231 -n 35 -e 99.999713
N -t 0.262231 -n 15 -e 99.999713
N -t 0.262231 -n 17 -e 99.999713
N -t 0.262231 -n 37 -e 99.999713
r 0.264310686 _16_ MAC  --- 16 message 32 [0 ffffffff 1a 800] [energy 99.999663 ei 0.000 es 0.000 et 0.000 er 0.000] ------- [26:255 -1:255 32 0] 
r 0.264310686 _25_ MAC  --- 16 message 32 [0 ffffffff 1a 800] [energy 99.999762 ei 0.000 es 0.000 et 0.000 er 0.000] ------- [26:255 -1:255 32 0] 
r 0.264310686 _36_ MAC  --- 16 message 32 [0 ffffffff 1a 800] [energy 99.999713 ei 0.000 es 0.000 et 0.000 er 0.000] ------- [26:255 -1:255 32 0] 
r 0.264310686 _27_ MAC  --- 16 message 32 [0 ffffffff 1a 800] [energy 99.999707 ei 0.000 es 0.000 et 0.000 er 0.000] ------- [26:255 -1:255 32 0] 
r 0.264310713 _35_ MAC  --- 16 message 32 [0 ffffffff 1a 800] [energy 99.999713 ei 0.000 es 0.000 et 0.000 er 0.000] ------- [26:255 -1:255 32 0] 
r 0.264310713 _15_ MAC  --- 16 message 32 [0 ffffffff 1a 800] [energy 99.999713 ei 0.000 es 0.000 et 0.000 er 0.000] ------- [26:255 -1:255 32 0] 
r 0.264310713 _17_ MAC  --- 16 message 32 [0 ffffffff 1a 800] [energy 99.999713 ei 0.000 es 0.000 et 0.000 er 0.000] ------- [26:255 -1:255 32 0] 
r 0.264310713 _37_ MAC  --- 16 message 32 [0 ffffffff 1a 800] [energy 99.999713 ei 0.000 es 0.000 et 0.000 er 0.000] ------- [26:255 -1:255 32 0] 
s 0.267830839 _80_ MAC  --- 15 message 39 [0 ffffffff 50 800] [energy 99.999699 ei 0.000 es 0.000 et 0.000 er 0.000] ------- [80:255 -1:255 32 0] 
N -t 0.267831 -n 70 -e 99.999703
N -t 0.267831 -n 90 -e 99.999703
N -t 0.267831 -n 81 -e 99.999609
N -t 0.267831 -n 71 -e 99.999709
N -t 0.267831 -n 91 -e 99.999659
r 0.269910906 _70_ MAC  --- 15 message 32 [0 ffffffff 50 800] [energy 99.999703 ei 0.000 es 0.000 et 0.000 er 0.000] ------- [80:255 -1:255 32 0] 
r 0.269910906 _90_ MAC  --- 15 message 32 [0 ffffffff 50 800] [energy 99.999703 ei 0.000 es 0.000 et 0.000 er 0.000] ------- [80:255 -1:255 32 0] 
r 0.269910906 _81_ MAC  --- 15 message 32 [0 ffffffff 50 800] [energy 99.999609 ei 0.000 es 0.000 et 0.000 er 0.000] ------- [80:255 -1:255 32 0] 
r 0.269910934 _71_ MAC  --- 15 message 32 [0 ffffffff 50 800] [energy 99.999709 ei 0.000 es 0.000 et 0.000 er 0.000] ------- [80:255 -1:255 32 0] 
r 0.269910934 _91_ MAC  --- 15 message 32 [0 ffffffff 50 800] [energy 99.999659 ei 0.000 es 0.000 et 0.000 er 0.000] ------- [80:255 -1:255 32 0] 
s 0.311632295 _23_ MAC  --- 17 message 39 [0 ffffffff 17 800] [energy 99.999717 ei 0.000 es 0.000 et 0.000 er 0.000] ------- [23:255 -1:255 32 0] 
N -t 0.311632 -n 13 -e 99.999678
N -t 0.311632 -n 22 -e 99.999628
N -t 0.311632 -n 33 -e 99.999678
N -t 0.311632 -n 24 -e 99.999727
N -t 0.311632 -n 32 -e 99.999678
N -t 0.311632 -n 12 -e 99.999611
N -t 0.311632 -n 14 -e 99.999678
N -t 0.311632 -n 34 -e 99.999678
r 0.313712362 _13_ MAC  --- 17 message 32 [0 ffffffff 17 800] [energy 99.999678 ei 0.000 es 0.000 et 0.000 er 0.000] ------- [23:255 -1:255 32 0] 
r 0.313712362 _22_ MAC  --- 17 message 32 [0 ffffffff 17 800] [energy 99.999628 ei 0.000 es 0.000 et 0.000 er 0.000] ------- [23:255 -1:255 32 0] 
r 0.313712362 _33_ MAC  --- 17 message 32 [0 ffffffff 17 800] [energy 99.999678 ei 0.000 es 0.000 et 0.000 er 0.000] ------- [23:255 -1:255 32 0] 
r 0.313712362 _24_ MAC  --- 17 message 32 [0 ffffffff 17 800] [energy 99.999727 ei 0.000 es 0.000 et 0.000 er 0.000] ------- [23:255 -1:255 32 0] 
r 0.313712389 _32_ MAC  --- 17 message 32 [0 ffffffff 17 800] [energy 99.999678 ei 0.000 es 0.000 et 0.000 er 0.000] ------- [23:255 -1:255 32 0] 
r 0.313712389 _12_ MAC  --- 17 message 32 [0 ffffffff 17 800] [energy 99.999611 ei 0.000 es 0.000 et 0.000 er 0.000] ------- [23:255 -1:255 32 0] 
r 0.313712389 _14_ MAC  --- 17 message 32 [0 ffffffff 17 800] [energy 99.999678 ei 0.000 es 0.000 et 0.000 er 0.000] ------- [23:255 -1:255 32 0] 
r 0.313712389 _34_ MAC  --- 17 message 32 [0 ffffffff 17 800] [energy 99.999678 ei 0.000 es 0.000 et 0.000 er 0.000] ------- [23:255 -1:255 32 0] 
s 0.506334763 _50_ MAC  --- 18 message 39 [0 ffffffff 32 800] [energy 99.999629 ei 0.000 es 0.000 et 0.000 er 0.000] ------- [50:255 -1:255 32 0] 
N -t 0.506335 -n 40 -e 99.999589
N -t 0.506335 -n 60 -e 99.999539
N -t 0.506335 -n 51 -e 99.999589
N -t 0.506335 -n 41 -e 99.999589
N -t 0.506335 -n 61 -e 99.999539
s 0.507336352 _66_ MAC  --- 19 message 39 [0 ffffffff 42 800] [energy 99.999578 ei 0.000 es 0.000 et 0.000 er 0.000] ------- [66:255 -1:255 32 0] 
N -t 0.507336 -n 56 -e 99.999538
N -t 0.507336 -n 65 -e 99.999588
N -t 0.507336 -n 76 -e 99.999439
N -t 0.507336 -n 67 -e 99.999483
N -t 0.507336 -n 75 -e 99.999538
N -t 0.507336 -n 55 -e 99.999538
N -t 0.507336 -n 57 -e 99.999488
N -t 0.507336 -n 77 -e 99.999389
r 0.508414830 _40_ MAC  --- 18 message 32 [0 ffffffff 32 800] [energy 99.999589 ei 0.000 es 0.000 et 0.000 er 0.000] ------- [50:255 -1:255 32 0] 
r 0.508414830 _60_ MAC  --- 18 message 32 [0 ffffffff 32 800] [energy 99.999539 ei 0.000 es 0.000 et 0.000 er 0.000] ------- [50:255 -1:255 32 0] 
r 0.508414830 _51_ MAC  --- 18 message 32 [0 ffffffff 32 800] [energy 99.999589 ei 0.000 es 0.000 et 0.000 er 0.000] ------- [50:255 -1:255 32 0] 
r 0.508414857 _41_ MAC  --- 18 message 32 [0 ffffffff 32 800] [energy 99.999589 ei 0.000 es 0.000 et 0.000 er 0.000] ------- [50:255 -1:255 32 0] 
r 0.508414857 _61_ MAC  --- 18 message 32 [0 ffffffff 32 800] [energy 99.999539 ei 0.000 es 0.000 et 0.000 er 0.000] ------- [50:255 -1:255 32 0] 
r 0.509416418 _56_ MAC  --- 19 message 32 [0 ffffffff 42 800] [energy 99.999538 ei 0.000 es 0.000 et 0.000 er 0.000] ------- [66:255 -1:255 32 0] 
r 0.509416418 _65_ MAC  --- 19 message 32 [0 ffffffff 42 800] [energy 99.999588 ei 0.000 es 0.000 et 0.000 er 0.000] ------- [66:255 -1:255 32 0] 
r 0.509416418 _76_ MAC  --- 19 message 32 [0 ffffffff 42 800] [energy 99.999439 ei 0.000 es 0.000 et 0.000 er 0.000] ------- [66:255 -1:255 32 0] 
r 0.509416418 _67_ MAC  --- 19 message 32 [0 ffffffff 42 800] [energy 99.999483 ei 0.000 es 0.000 et 0.000 er 0.000] ------- [66:255 -1:255 32 0] 
r 0.509416446 _75_ MAC  --- 19 message 32 [0 ffffffff 42 800] [energy 99.999538 ei 0.000 es 0.000 et 0.000 er 0.000] ------- [66:255 -1:255 32 0] 
r 0.509416446 _55_ MAC  --- 19 message 32 [0 ffffffff 42 800] [energy 99.999538 ei 0.000 es 0.000 et 0.000 er 0.000] ------- [66:255 -1:255 32 0] 
r 0.509416446 _57_ MAC  --- 19 message 32 [0 ffffffff 42 800] [energy 99.999488 ei 0.000 es 0.000 et 0.000 er 0.000] ------- [66:255 -1:255 32 0] 
r 0.509416446 _77_ MAC  --- 19 message 32 [0 ffffffff 42 800] [energy 99.999389 ei 0.000 es 0.000 et 0.000 er 0.000] ------- [66:255 -1:255 32 0] 
s 0.524628843 _84_ MAC  --- 20 message 39 [0 ffffffff 54 800] [energy 99.999566 ei 0.000 es 0.000 et 0.000 er 0.000] ------- [84:255 -1:255 32 0] 
N -t 0.524629 -n 74 -e 99.999576
N -t 0.524629 -n 83 -e 99.999476
N -t 0.524629 -n 94 -e 99.999521
N -t 0.524629 -n 85 -e 99.999476
N -t 0.524629 -n 93 -e 99.999476
N -t 0.524629 -n 73 -e 99.999576
N -t 0.524629 -n 75 -e 99.999476
N -t 0.524629 -n 95 -e 99.999476
r 0.526708910 _74_ MAC  --- 20 message 32 [0 ffffffff 54 800] [energy 99.999576 ei 0.000 es 0.000 et 0.000 er 0.000] ------- [84:255 -1:255 32 0] 
r 0.526708910 _83_ MAC  --- 20 message 32 [0 ffffffff 54 800] [energy 99.999476 ei 0.000 es 0.000 et 0.000 er 0.000] ------- [84:255 -1:255 32 0] 
r 0.526708910 _94_ MAC  --- 20 message 32 [0 ffffffff 54 800] [energy 99.999521 ei 0.000 es 0.000 et 0.000 er 0.000] ------- [84:255 -1:255 32 0] 
r 0.526708910 _85_ MAC  --- 20 message 32 [0 ffffffff 54 800] [energy 99.999476 ei 0.000 es 0.000 et 0.000 er 0.000] ------- [84:255 -1:255 32 0] 
r 0.526708938 _93_ MAC  --- 20 message 32 [0 ffffffff 54 800] [energy 99.999476 ei 0.000 es 0.000 et 0.000 er 0.000] ------- [84:255 -1:255 32 0] 
r 0.526708938 _73_ MAC  --- 20 message 32 [0 ffffffff 54 800] [energy 99.999576 ei 0.000 es 0.000 et 0.000 er 0.000] ------- [84:255 -1:255 32 0] 
r 0.526708938 _75_ MAC  --- 20 message 32 [0 ffffffff 54 800] [energy 99.999476 ei 0.000 es 0.000 et 0.000 er 0.000] ------- [84:255 -1:255 32 0] 
r 0.526708938 _95_ MAC  --- 20 message 32 [0 ffffffff 54 800] [energy 99.999476 ei 0.000 es 0.000 et 0.000 er 0.000] ------- [84:255 -1:255 32 0] 
s 0.530747787 _7_ MAC  --- 21 message 39 [0 ffffffff 7 800] [energy 99.999611 ei 0.000 es 0.000 et 0.000 er 0.000] ------- [7:255 -1:255 32 0] 
N -t 0.530748 -n 6 -e 99.999522
N -t 0.530748 -n 17 -e 99.999472
N -t 0.530748 -n 8 -e 99.999571
N -t 0.530748 -n 16 -e 99.999422
N -t 0.530748 -n 18 -e 99.999522
r 0.532827854 _6_ MAC  --- 21 message 32 [0 ffffffff 7 800] [energy 99.999522 ei 0.000 es 0.000 et 0.000 er 0.000] ------- [7:255 -1:255 32 0] 
r 0.532827854 _17_ MAC  --- 21 message 32 [0 ffffffff 7 800] [energy 99.999472 ei 0.000 es 0.000 et 0.000 er 0.000] ------- [7:255 -1:255 32 0] 
r 0.532827854 _8_ MAC  --- 21 message 32 [0 ffffffff 7 800] [energy 99.999571 ei 0.000 es 0.000 et 0.000 er 0.000] ------- [7:255 -1:255 32 0] 
r 0.532827881 _16_ MAC  --- 21 message 32 [0 ffffffff 7 800] [energy 99.999422 ei 0.000 es 0.000 et 0.000 er 0.000] ------- [7:255 -1:255 32 0] 
r 0.532827881 _18_ MAC  --- 21 message 32 [0 ffffffff 7 800] [energy 99.999522 ei 0.000 es 0.000 et 0.000 er 0.000] ------- [7:255 -1:255 32 0] 
s 0.537716441 _43_ MAC  --- 23 message 39 [0 ffffffff 2b 800] [energy 99.999556 ei 0.000 es 0.000 et 0.000 er 0.000] ------- [43:255 -1:255 32 0] 
N -t 0.537717 -n 33 -e 99.999467
N -t 0.537717 -n 42 -e 99.999566
N -t 0.537717 -n 53 -e 99.999517
N -t 0.537717 -n 44 -e 99.999511
N -t 0.537717 -n 52 -e 99.999566
N -t 0.537717 -n 32 -e 99.999467
N -t 0.537717 -n 34 -e 99.999467
N -t 0.537717 -n 54 -e 99.999517
r 0.539796508 _33_ MAC  --- 23 message 32 [0 ffffffff 2b 800] [energy 99.999467 ei 0.000 es 0.000 et 0.000 er 0.000] ------- [43:255 -1:255 32 0] 
r 0.539796508 _42_ MAC  --- 23 message 32 [0 ffffffff 2b 800] [energy 99.999566 ei 0.000 es 0.000 et 0.000 er 0.000] ------- [43:255 -1:255 32 0] 
r 0.539796508 _53_ MAC  --- 23 message 32 [0 ffffffff 2b 800] [energy 99.999517 ei 0.000 es 0.000 et 0.000 er 0.000] ------- [43:255 -1:255 32 0] 
r 0.539796508 _44_ MAC  --- 23 message 32 [0 ffffffff 2b 800] [energy 99.999511 ei 0.000 es 0.000 et 0.000 er 0.000] ------- [43:255 -1:255 32 0] 
r 0.539796536 _52_ MAC  --- 23 message 32 [0 ffffffff 2b 800] [energy 99.999566 ei 0.000 es 0.000 et 0.000 er 0.000] ------- [43:255 -1:255 32 0] 
r 0.539796536 _32_ MAC  --- 23 message 32 [0 ffffffff 2b 800] [energy 99.999467 ei 0.000 es 0.000 et 0.000 er 0.000] ------- [43:255 -1:255 32 0] 