s 0.018570421 _5_ MAC  --- 0 message 39 [0 ffffffff 5 800] [energy 999.983451 ei 0.016 es 0.000 et 0.000 er 0.000] ------- [5:255 -1:255 32 0] 
N -t 0.018571 -n 4 -e 999.981954
N -t 0.018571 -n 15 -e 999.981954
N -t 0.018571 -n 6 -e 999.981954
N -t 0.018571 -n 14 -e 999.981954
N -t 0.018571 -n 16 -e 999.981954
N -t 0.018571 -n 3 -e 999.981954
N -t 0.018571 -n 25 -e 999.981954
N -t 0.018571 -n 7 -e 999.981954
N -t 0.018571 -n 24 -e 999.981954
N -t 0.018571 -n 13 -e 999.981954
N -t 0.018571 -n 26 -e 999.981954
N -t 0.018571 -n 17 -e 999.981954
N -t 0.018571 -n 23 -e 999.981954
N -t 0.018571 -n 27 -e 999.981954
N -t 0.018571 -n 2 -e 999.981954
N -t 0.018571 -n 35 -e 999.981954
N -t 0.018571 -n 8 -e 999.981954
N -t 0.018571 -n 34 -e 999.981954
N -t 0.018571 -n 12 -e 999.981954
N -t 0.018571 -n 36 -e 999.981954
N -t 0.018571 -n 18 -e 999.981954
N -t 0.018572 -n 33 -e 999.981954
N -t 0.018572 -n 22 -e 999.981954
N -t 0.018572 -n 37 -e 999.981954
N -t 0.018572 -n 28 -e 999.981954
N -t 0.018572 -n 1 -e 999.981953
N -t 0.018572 -n 45 -e 999.981953
N -t 0.018572 -n 9 -e 999.981953
N -t 0.018572 -n 44 -e 999.981953
N -t 0.018572 -n 11 -e 999.981953
N -t 0.018572 -n 46 -e 999.981953
N -t 0.018572 -n 19 -e 999.981953
N -t 0.018572 -n 32 -e 999.981953
N -t 0.018572 -n 38 -e 999.981953
N -t 0.018572 -n 43 -e 999.981953
N -t 0.018572 -n 21 -e 999.981953
N -t 0.018572 -n 47 -e 999.981953
N -t 0.018572 -n 29 -e 999.981953
N -t 0.018572 -n 42 -e 999.981953
N -t 0.018572 -n 31 -e 999.981953
N -t 0.018572 -n 0 -e 999.981953
N -t 0.018572 -n 55 -e 999.981953
N -t 0.018572 -n 48 -e 999.981953
N -t 0.018572 -n 39 -e 999.981953
N -t 0.018572 -n 54 -e 999.981953
N -t 0.018572 -n 10 -e 999.981953
N -t 0.018572 -n 56 -e 999.981953
N -t 0.018572 -n 53 -e 999.981953
N -t 0.018572 -n 20 -e 999.981953
N -t 0.018572 -n 57 -e 999.981953
r 0.020650755 _4_ MAC  --- 0 message 32 [0 ffffffff 5 800] [energy 999.981954 ei 0.017 es 0.000 et 0.000 er 0.001] ------- [5:255 -1:255 32 0] 
r 0.020650755 _15_ MAC  --- 0 message 32 [0 ffffffff 5 800] [energy 999.981954 ei 0.017 es 0.000 et 0.000 er 0.001] ------- [5:255 -1:255 32 0] 
r 0.020650755 _6_ MAC  --- 0 message 32 [0 ffffffff 5 800] [energy 999.981954 ei 0.017 es 0.000 et 0.000 er 0.001] ------- [5:255 -1:255 32 0] 
r 0.020650893 _14_ MAC  --- 0 message 32 [0 ffffffff 5 800] [energy 999.981954 ei 0.017 es 0.000 et 0.000 er 0.001] ------- [5:255 -1:255 32 0] 
r 0.020650893 _16_ MAC  --- 0 message 32 [0 ffffffff 5 800] [energy 999.981954 ei 0.017 es 0.000 et 0.000 er 0.001] ------- [5:255 -1:255 32 0] 
r 0.020651088 _3_ MAC  --- 0 message 32 [0 ffffffff 5 800] [energy 999.981954 ei 0.017 es 0.000 et 0.000 er 0.001] ------- [5:255 -1:255 32 0] 
r 0.020651088 _25_ MAC  --- 0 message 32 [0 ffffffff 5 800] [energy 999.981954 ei 0.017 es 0.000 et 0.000 er 0.001] ------- [5:255 -1:255 32 0] 
r 0.020651088 _7_ MAC  --- 0 message 32 [0 ffffffff 5 800] [energy 999.981954 ei 0.017 es 0.000 et 0.000 er 0.001] ------- [5:255 -1:255 32 0] 
r 0.020651167 _24_ MAC  --- 0 message 32 [0 ffffffff 5 800] [energy 999.981954 ei 0.017 es 0.000 et 0.000 er 0.001] ------- [5:255 -1:255 32 0] 
r 0.020651167 _13_ MAC  --- 0 message 32 [0 ffffffff 5 800] [energy 999.981954 ei 0.017 es 0.000 et 0.000 er 0.001] ------- [5:255 -1:255 32 0] 
r 0.020651167 _26_ MAC  --- 0 message 32 [0 ffffffff 5 800] [energy 999.981954 ei 0.017 es 0.000 et 0.000 er 0.001] ------- [5:255 -1:255 32 0] 
r 0.020651167 _17_ MAC  --- 0 message 32 [0 ffffffff 5 800] [energy 999.981954 ei 0.017 es 0.000 et 0.000 er 0.001] ------- [5:255 -1:255 32 0] 
s 0.050105336 _0_ MAC  --- 1 message 39 [0 ffffffff 0 800] [energy 999.955034 ei 0.043 es 0.000 et 0.000 er 0.002] ------- [0:255 -1:255 32 0] 
N -t 0.050106 -n 10 -e 999.953537
N -t 0.050106 -n 1 -e 999.953537
N -t 0.050106 -n 11 -e 999.953537
N -t 0.050106 -n 20 -e 999.953537
N -t 0.050106 -n 2 -e 999.953537
N -t 0.050106 -n 21 -e 999.953537
N -t 0.050106 -n 12 -e 999.953537
N -t 0.050106 -n 22 -e 999.953536
N -t 0.050106 -n 30 -e 999.953572
N -t 0.050106 -n 3 -e 999.953536
N -t 0.050106 -n 31 -e 999.953536
N -t 0.050106 -n 13 -e 999.953536
N -t 0.050107 -n 32 -e 999.953536
N -t 0.050107 -n 23 -e 999.953536
N -t 0.050107 -n 40 -e 999.953572
N -t 0.050107 -n 4 -e 999.953536
N -t 0.050107 -n 41 -e 999.953572
N -t 0.050107 -n 14 -e 999.953536
N -t 0.050107 -n 33 -e 999.953536
N -t 0.050107 -n 42 -e 999.953536
N -t 0.050107 -n 24 -e 999.953536
N -t 0.050107 -n 50 -e 999.953572
N -t 0.050107 -n 43 -e 999.953536
N -t 0.050107 -n 34 -e 999.953536
N -t 0.050107 -n 5 -e 999.952808
N -t 0.050107 -n 51 -e 999.953572
N -t 0.050107 -n 15 -e 999.953536
N -t 0.050107 -n 52 -e 999.953572
N -t 0.050107 -n 25 -e 999.953536
r 0.052185669 _10_ MAC  --- 1 message 32 [0 ffffffff 0 800] [energy 999.953537 ei 0.044 es 0.000 et 0.000 er 0.003] ------- [0:255 -1:255 32 0] 
r 0.052185669 _1_ MAC  --- 1 message 32 [0 ffffffff 0 800] [energy 999.953537 ei 0.044 es 0.000 et 0.000 er 0.003] ------- [0:255 -1:255 32 0] 
r 0.052185807 _11_ MAC  --- 1 message 32 [0 ffffffff 0 800] [energy 999.953537 ei 0.044 es 0.000 et 0.000 er 0.003] ------- [0:255 -1:255 32 0] 
r 0.052186002 _20_ MAC  --- 1 message 32 [0 ffffffff 0 800] [energy 999.953537 ei 0.044 es 0.000 et 0.000 er 0.003] ------- [0:255 -1:255 32 0] 
r 0.052186002 _2_ MAC  --- 1 message 32 [0 ffffffff 0 800] [energy 999.953537 ei 0.044 es 0.000 et 0.000 er 0.003] ------- [0:255 -1:255 32 0] 
r 0.052186081 _21_ MAC  --- 1 message 32 [0 ffffffff 0 800] [energy 999.953537 ei 0.044 es 0.000 et 0.000 er 0.003] ------- [0:255 -1:255 32 0] 
r 0.052186081 _12_ MAC  --- 1 message 32 [0 ffffffff 0 800] [energy 999.953537 ei 0.044 es 0.000 et 0.000 er 0.003] ------- [0:255 -1:255 32 0] 
s 0.071143271 _67_ MAC  --- 2 message 39 [0 ffffffff 43 800] [energy 999.936136 ei 0.064 es 0.000 et 0.000 er 0.000] ------- [67:255 -1:255 32 0] 
N -t 0.071144 -n 57 -e 999.934603
N -t 0.071144 -n 66 -e 999.934639
N -t 0.071144 -n 77 -e 999.934639
N -t 0.071144 -n 68 -e 999.934639
N -t 0.071144 -n 76 -e 999.934639
N -t 0.071144 -n 56 -e 999.934603
N -t 0.071144 -n 58 -e 999.934639
N -t 0.071144 -n 78 -e 999.934639
N -t 0.071144 -n 47 -e 999.934602
N -t 0.071144 -n 65 -e 999.934638
N -t 0.071144 -n 87 -e 999.934638
N -t 0.071144 -n 69 -e 999.934638
N -t 0.071144 -n 86 -e 999.934638
N -t 0.071144 -n 46 -e 999.934602
N -t 0.071144 -n 75 -e 999.934638
N -t 0.071144 -n 55 -e 999.934602
N -t 0.071144 -n 48 -e 999.934602
N -t 0.071144 -n 88 -e 999.934638
N -t 0.071144 -n 59 -e 999.934638
N -t 0.071144 -n 79 -e 999.934638
N -t 0.071144 -n 85 -e 999.934638
N -t 0.071144 -n 45 -e 999.934602
N -t 0.071144 -n 49 -e 999.934638
N -t 0.071144 -n 89 -e 999.934638
N -t 0.071144 -n 37 -e 999.934602
N -t 0.071144 -n 64 -e 999.934638
N -t 0.071144 -n 97 -e 999.934638
N -t 0.071144 -n 96 -e 999.934638
N -t 0.071144 -n 36 -e 999.934602
N -t 0.071144 -n 74 -e 999.934638
N -t 0.071144 -n 54 -e 999.934602
N -t 0.071144 -n 38 -e 999.934602
N -t 0.071144 -n 98 -e 999.934638
N -t 0.071144 -n 95 -e 999.934638
N -t 0.071144 -n 35 -e 999.934602
N -t 0.071144 -n 84 -e 999.934638
N -t 0.071144 -n 44 -e 999.934602
N -t 0.071144 -n 39 -e 999.934602
N -t 0.071144 -n 99 -e 999.934638
N -t 0.071145 -n 27 -e 999.934602
N -t 0.071145 -n 63 -e 999.934638
N -t 0.071145 -n 26 -e 999.934602
N -t 0.071145 -n 73 -e 999.934638
N -t 0.071145 -n 53 -e 999.934602
N -t 0.071145 -n 28 -e 999.934602
N -t 0.071145 -n 94 -e 999.934638
N -t 0.071145 -n 34 -e 999.934566
N -t 0.071145 -n 25 -e 999.934566
N -t 0.071145 -n 83 -e 999.934638
N -t 0.071145 -n 43 -e 999.934566
N -t 0.071145 -n 29 -e 999.934602
N -t 0.071145 -n 17 -e 999.934602
N -t 0.071145 -n 24 -e 999.934566
N -t 0.071145 -n 93 -e 999.934638
N -t 0.071145 -n 33 -e 999.934566
N -t 0.071145 -n 62 -e 999.934638
N -t 0.071145 -n 16 -e 999.934602
N -t 0.071145 -n 72 -e 999.934638
N -t 0.071145 -n 52 -e 999.934602
N -t 0.071145 -n 18 -e 999.934602
N -t 0.071145 -n 15 -e 999.934565
N -t 0.071145 -n 82 -e 999.934637
N -t 0.071145 -n 42 -e 999.934565
N -t 0.071145 -n 19 -e 999.934601
r 0.073223604 _57_ MAC  --- 2 message 32 [0 ffffffff 43 800] [energy 999.934603 ei 0.063 es 0.000 et 0.000 er 0.003] ------- [67:255 -1:255 32 0] 
r 0.073223604 _66_ MAC  --- 2 message 32 [0 ffffffff 43 800] [energy 999.934639 ei 0.064 es 0.000 et 0.000 er 0.001] ------- [67:255 -1:255 32 0] 
r 0.073223604 _77_ MAC  --- 2 message 32 [0 ffffffff 43 800] [energy 999.934639 ei 0.064 es 0.000 et 0.000 er 0.001] ------- [67:255 -1:255 32 0] 
r 0.073223604 _68_ MAC  --- 2 message 32 [0 ffffffff 43 800] [energy 999.934639 ei 0.064 es 0.000 et 0.000 er 0.001] ------- [67:255 -1:255 32 0] 
r 0.073223743 _76_ MAC  --- 2 message 32 [0 ffffffff 43 800] [energy 999.934639 ei 0.064 es 0.000 et 0.000 er 0.001] ------- [67:255 -1:255 32 0] 
r 0.073223743 _56_ MAC  --- 2 message 32 [0 ffffffff 43 800] [energy 999.934603 ei 0.063 es 0.000 et 0.000 er 0.003] ------- [67:255 -1:255 32 0] 
r 0.073223743 _58_ MAC  --- 2 message 32 [0 ffffffff 43 800] [energy 999.934639 ei 0.064 es 0.000 et 0.000 er 0.001] ------- [67:255 -1:255 32 0] 
r 0.073223743 _78_ MAC  --- 2 message 32 [0 ffffffff 43 800] [energy 999.934639 ei 0.064 es 0.000 et 0.000 er 0.001] ------- [67:255 -1:255 32 0] 
r 0.073223938 _47_ MAC  --- 2 message 32 [0 ffffffff 43 800] [energy 999.934602 ei 0.063 es 0.000 et 0.000 er 0.003] ------- [67:255 -1:255 32 0] 
r 0.073223938 _65_ MAC  --- 2 message 32 [0 ffffffff 43 800] [energy 999.934638 ei 0.064 es 0.000 et 0.000 er 0.001] ------- [67:255 -1:255 32 0] 
r 0.073223938 _87_ MAC  --- 2 message 32 [0 ffffffff 43 800] [energy 999.934638 ei 0.064 es 0.000 et 0.000 er 0.001] ------- [67:255 -1:255 32 0] 
r 0.073223938 _69_ MAC  --- 2 message 32 [0 ffffffff 43 800] [energy 999.934638 ei 0.064 es 0.000 et 0.000 er 0.001] ------- [67:255 -1:255 32 0] 
r 0.073224017 _86_ MAC  --- 2 message 32 [0 ffffffff 43 800] [energy 999.934638 ei 0.064 es 0.000 et 0.000 er 0.001] ------- [67:255 -1:255 32 0] 
r 0.073224017 _46_ MAC  --- 2 message 32 [0 ffffffff 43 800] [energy 999.934602 ei 0.063 es 0.000 et 0.000 er 0.003] ------- [67:255 -1:255 32 0] 
r 0.073224017 _75_ MAC  --- 2 message 32 [0 ffffffff 43 800] [energy 999.934638 ei 0.064 es 0.000 et 0.000 er 0.001] ------- [67:255 -1:255 32 0] 
r 0.073224017 _55_ MAC  --- 2 message 32 [0 ffffffff 43 800] [energy 999.934602 ei 0.063 es 0.000 et 0.000 er 0.003] ------- [67:255 -1:255 32 0] 
r 0.073224017 _48_ MAC  --- 2 message 32 [0 ffffffff 43 800] [energy 999.934602 ei 0.063 es 0.000 et 0.000 er 0.003] ------- [67:255 -1:255 32 0] 
r 0.073224017 _88_ MAC  --- 2 message 32 [0 ffffffff 43 800] [energy 999.934638 ei 0.064 es 0.000 et 0.000 er 0.001] ------- [67:255 -1:255 32 0] 
r 0.073224017 _59_ MAC  --- 2 message 32 [0 ffffffff 43 800] [energy 999.934638 ei 0.064 es 0.000 et 0.000 er 0.001] ------- [67:255 -1:255 32 0] 
r 0.073224017 _79_ MAC  --- 2 message 32 [0 ffffffff 43 800] [energy 999.934638 ei 0.064 es 0.000 et 0.000 er 0.001] ------- [67:255 -1:255 32 0] 
s 0.081360631 _21_ MAC  --- 3 message 39 [0 ffffffff 15 800] [energy 999.926868 ei 0.070 es 0.000 et 0.000 er 0.003] ------- [21:255 -1:255 32 0] 
N -t 0.081361 -n 11 -e 999.925371
N -t 0.081361 -n 20 -e 999.925371
N -t 0.081361 -n 31 -e 999.925371
N -t 0.081361 -n 22 -e 999.925371
N -t 0.081361 -n 30 -e 999.925407
N -t 0.081361 -n 10 -e 999.925371
N -t 0.081361 -n 12 -e 999.925371
N -t 0.081361 -n 32 -e 999.925371
N -t 0.081361 -n 1 -e 999.925371
N -t 0.081361 -n 41 -e 999.925407
N -t 0.081361 -n 23 -e 999.925371
N -t 0.081361 -n 40 -e 999.925407
N -t 0.081361 -n 0 -e 999.924643
N -t 0.081361 -n 2 -e 999.925371
N -t 0.081361 -n 42 -e 999.925335
N -t 0.081361 -n 13 -e 999.925371
N -t 0.081361 -n 33 -e 999.925335
N -t 0.081362 -n 3 -e 999.925371
N -t 0.081362 -n 43 -e 999.925335
N -t 0.081362 -n 51 -e 999.925407
N -t 0.081362 -n 24 -e 999.925335
N -t 0.081362 -n 50 -e 999.925406
N -t 0.081362 -n 52 -e 999.925370
N -t 0.081362 -n 14 -e 999.925370
N -t 0.081362 -n 34 -e 999.925334
N -t 0.081362 -n 53 -e 999.925370
N -t 0.081362 -n 4 -e 999.925370
N -t 0.081362 -n 44 -e 999.925370
N -t 0.081362 -n 61 -e 999.925442
N -t 0.081362 -n 25 -e 999.925334
N -t 0.081362 -n 60 -e 999.925442
N -t 0.081362 -n 62 -e 999.925406
N -t 0.081362 -n 15 -e 999.925334
N -t 0.081362 -n 35 -e 999.925370
N -t 0.081362 -n 54 -e 999.925370
N -t 0.081362 -n 63 -e 999.925406
N -t 0.081362 -n 5 -e 999.924642
N -t 0.081362 -n 45 -e 999.925370
N -t 0.081362 -n 71 -e 999.925442
N -t 0.081362 -n 64 -e 999.925406
N -t 0.081362 -n 55 -e 999.925370
N -t 0.081362 -n 26 -e 999.925370
N -t 0.081362 -n 70 -e 999.925442
N -t 0.081362 -n 72 -e 999.925406
N -t 0.081362 -n 16 -e 999.925370
N -t 0.081362 -n 36 -e 999.925370
N -t 0.081362 -n 73 -e 999.925406
N -t 0.081362 -n 6 -e 999.925406
N -t 0.081362 -n 46 -e 999.925370
s 0.083070454 _12_ MAC  --- 4 message 39 [0 ffffffff c 800] [energy 999.925067 ei 0.071 es 0.000 et 0.000 er 0.004] ------- [12:255 -1:255 32 0] 
N -t 0.083071 -n 2 -e 999.923796
N -t 0.083071 -n 11 -e 999.923796
N -t 0.083071 -n 22 -e 999.923796
N -t 0.083071 -n 13 -e 999.923796
N -t 0.083071 -n 21 -e 999.923068
N -t 0.083071 -n 1 -e 999.923796
N -t 0.083071 -n 3 -e 999.923796
N -t 0.083071 -n 23 -e 999.923796
N -t 0.083071 -n 10 -e 999.923796
N -t 0.083071 -n 32 -e 999.923796
N -t 0.083071 -n 14 -e 999.923796
N -t 0.083071 -n 31 -e 999.923796
N -t 0.083071 -n 20 -e 999.923796
N -t 0.083071 -n 0 -e 999.923068
N -t 0.083071 -n 33 -e 999.923760
N -t 0.083071 -n 4 -e 999.923796
N -t 0.083071 -n 24 -e 999.923760
N -t 0.083071 -n 30 -e 999.923832
N -t 0.083071 -n 34 -e 999.923760
N -t 0.083071 -n 42 -e 999.923760
N -t 0.083071 -n 15 -e 999.923760
N -t 0.083072 -n 41 -e 999.923832
N -t 0.083072 -n 43 -e 999.923760
N -t 0.083072 -n 5 -e 999.923068
N -t 0.083072 -n 25 -e 999.923760
N -t 0.083072 -n 40 -e 999.923832
N -t 0.083072 -n 44 -e 999.923796
N -t 0.083072 -n 35 -e 999.923796
N -t 0.083072 -n 52 -e 999.923795
N -t 0.083072 -n 16 -e 999.923795
N -t 0.083072 -n 51 -e 999.923831
N -t 0.083072 -n 53 -e 999.923795
N -t 0.083072 -n 6 -e 999.923831
N -t 0.083072 -n 26 -e 999.923795
N -t 0.083072 -n 45 -e 999.923795
N -t 0.083072 -n 50 -e 999.923831
N -t 0.083072 -n 54 -e 999.923795
N -t 0.083072 -n 36 -e 999.923795
N -t 0.083072 -n 62 -e 999.923831
N -t 0.083072 -n 55 -e 999.923795
N -t 0.083072 -n 46 -e 999.923795
N -t 0.083072 -n 17 -e 999.923831
N -t 0.083072 -n 61 -e 999.923867
N -t 0.083072 -n 63 -e 999.923831
N -t 0.083072 -n 7 -e 999.923867
N -t 0.083072 -n 27 -e 999.923831
N -t 0.083072 -n 60 -e 999.923867
N -t 0.083072 -n 64 -e 999.923831
N -t 0.083072 -n 37 -e 999.923831
r 0.083440965 _11_ MAC  --- 3 message 32 [0 ffffffff 15 800] [energy 999.923796 ei 0.071 es 0.000 et 0.000 er 0.005] ------- [21:255 -1:255 32 0] 
r 0.083440965 _20_ MAC  --- 3 message 32 [0 ffffffff 15 800] [energy 999.923796 ei 0.071 es 0.000 et 0.000 er 0.005] ------- [21:255 -1:255 32 0] 
r 0.083440965 _31_ MAC  --- 3 message 32 [0 ffffffff 15 800] [energy 999.923796 ei 0.071 es 0.000 et 0.000 er 0.005] ------- [21:255 -1:255 32 0] 
r 0.083440965 _22_ MAC  --- 3 message 32 [0 ffffffff 15 800] [energy 999.923796 ei 0.071 es 0.000 et 0.000 er 0.005] ------- [21:255 -1:255 32 0] 
r 0.083441103 _30_ MAC  --- 3 message 32 [0 ffffffff 15 800] [energy 999.923832 ei 0.072 es 0.000 et 0.000 er 0.004] ------- [21:255 -1:255 32 0] 
r 0.083441103 _10_ MAC  --- 3 message 32 [0 ffffffff 15 800] [energy 999.923796 ei 0.071 es 0.000 et 0.000 er 0.005] ------- [21:255 -1:255 32 0] 
r 0.083441103 _12_ MAC  --- 3 message 32 [0 ffffffff 15 800] [energy 999.922842 ei 0.071 es 0.000 et 0.002 er 0.004] ------- [21:255 -1:255 32 0] 
r 0.083441103 _32_ MAC  --- 3 message 32 [0 ffffffff 15 800] [energy 999.923796 ei 0.071 es 0.000 et 0.000 er 0.005] ------- [21:255 -1:255 32 0] 
r 0.083441298 _1_ MAC  --- 3 message 32 [0 ffffffff 15 800] [energy 999.923796 ei 0.071 es 0.000 et 0.000 er 0.005] ------- [21:255 -1:255 32 0] 
r 0.083441298 _41_ MAC  --- 3 message 32 [0 ffffffff 15 800] [energy 999.923832 ei 0.072 es 0.000 et 0.000 er 0.004] ------- [21:255 -1:255 32 0] 
r 0.083441298 _23_ MAC  --- 3 message 32 [0 ffffffff 15 800] [energy 999.923796 ei 0.071 es 0.000 et 0.000 er 0.005] ------- [21:255 -1:255 32 0] 
r 0.083441377 _40_ MAC  --- 3 message 32 [0 ffffffff 15 800] [energy 999.923832 ei 0.072 es 0.000 et 0.000 er 0.004] ------- [21:255 -1:255 32 0] 
r 0.083441377 _0_ MAC  --- 3 message 32 [0 ffffffff 15 800] [energy 999.923068 ei 0.071 es 0.000 et 0.002 er 0.004] ------- [21:255 -1:255 32 0] 
r 0.083441377 _2_ MAC  --- 3 message 32 [0 ffffffff 15 800] [energy 999.923796 ei 0.071 es 0.000 et 0.000 er 0.005] ------- [21:255 -1:255 32 0] 
r 0.083441377 _42_ MAC  --- 3 message 32 [0 ffffffff 15 800] [energy 999.923760 ei 0.070 es 0.000 et 0.000 er 0.007] ------- [21:255 -1:255 32 0] 
r 0.083441377 _13_ MAC  --- 3 message 32 [0 ffffffff 15 800] [energy 999.923796 ei 0.071 es 0.000 et 0.000 er 0.005] ------- [21:255 -1:255 32 0] 
r 0.083441377 _33_ MAC  --- 3 message 32 [0 ffffffff 15 800] [energy 999.923760 ei 0.070 es 0.000 et 0.000 er 0.007] ------- [21:255 -1:255 32 0] 
r 0.085150788 _2_ MAC  --- 4 message 32 [0 ffffffff c 800] [energy 999.923796 ei 0.071 es 0.000 et 0.000 er 0.005] ------- [12:255 -1:255 32 0] 
r 0.085150788 _11_ MAC  --- 4 message 32 [0 ffffffff c 800] [energy 999.923796 ei 0.071 es 0.000 et 0.000 er 0.005] ------- [12:255 -1:255 32 0] 
r 0.085150788 _22_ MAC  --- 4 message 32 [0 ffffffff c 800] [energy 999.923796 ei 0.071 es 0.000 et 0.000 er 0.005] ------- [12:255 -1:255 32 0] 
r 0.085150788 _13_ MAC  --- 4 message 32 [0 ffffffff c 800] [energy 999.923796 ei 0.071 es 0.000 et 0.000 er 0.005] ------- [12:255 -1:255 32 0] 
r 0.085150926 _21_ MAC  --- 4 message 32 [0 ffffffff c 800] [energy 999.923068 ei 0.071 es 0.000 et 0.002 er 0.004] ------- [12:255 -1:255 32 0] 
r 0.085150926 _1_ MAC  --- 4 message 32 [0 ffffffff c 800] [energy 999.923796 ei 0.071 es 0.000 et 0.000 er 0.005] ------- [12:255 -1:255 32 0] 
r 0.085150926 _3_ MAC  --- 4 message 32 [0 ffffffff c 800] [energy 999.923796 ei 0.071 es 0.000 et 0.000 er 0.005] ------- [12:255 -1:255 32 0] 
r 0.085150926 _23_ MAC  --- 4 message 32 [0 ffffffff c 800] [energy 999.923796 ei 0.071 es 0.000 et 0.000 er 0.005] ------- [12:255 -1:255 32 0] 
r 0.085151121 _10_ MAC  --- 4 message 32 [0 ffffffff c 800] [energy 999.923796 ei 0.071 es 0.000 et 0.000 er 0.005] ------- [12:255 -1:255 32 0] 
r 0.085151121 _32_ MAC  --- 4 message 32 [0 ffffffff c 800] [energy 999.923796 ei 0.071 es 0.000 et 0.000 er 0.005] ------- [12:255 -1:255 32 0] 
r 0.085151121 _14_ MAC  --- 4 message 32 [0 ffffffff c 800] [energy 999.923796 ei 0.071 es 0.000 et 0.000 er 0.005] ------- [12:255 -1:255 32 0] 
r 0.085151200 _31_ MAC  --- 4 message 32 [0 ffffffff c 800] [energy 999.923796 ei 0.071 es 0.000 et 0.000 er 0.005] ------- [12:255 -1:255 32 0] 
r 0.085151200 _20_ MAC  --- 4 message 32 [0 ffffffff c 800] [energy 999.923796 ei 0.071 es 0.000 et 0.000 er 0.005] ------- [12:255 -1:255 32 0] 
r 0.085151200 _0_ MAC  --- 4 message 32 [0 ffffffff c 800] [energy 999.923068 ei 0.071 es 0.000 et 0.002 er 0.004] ------- [12:255 -1:255 32 0] 
r 0.085151200 _33_ MAC  --- 4 message 32 [0 ffffffff c 800] [energy 999.923760 ei 0.070 es 0.000 et 0.000 er 0.007] ------- [12:255 -1:255 32 0] 
r 0.085151200 _4_ MAC  --- 4 message 32 [0 ffffffff c 800] [energy 999.923796 ei 0.071 es 0.000 et 0.000 er 0.005] ------- [12:255 -1:255 32 0] 
r 0.085151200 _24_ MAC  --- 4 message 32 [0 ffffffff c 800] [energy 999.923760 ei 0.070 es 0.000 et 0.000 er 0.007] ------- [12:255 -1:255 32 0] 
s 0.099972643 _92_ MAC  --- 5 message 39 [0 ffffffff 5c 800] [energy 999.910189 ei 0.090 es 0.000 et 0.000 er 0.000] ------- [92:255 -1:255 32 0] 
N -t 0.099973 -n 82 -e 999.908656
N -t 0.099973 -n 91 -e 999.908692
N -t 0.099973 -n 93 -e 999.908656
N -t 0.099973 -n 81 -e 999.908692
N -t 0.099973 -n 83 -e 999.908656
N -t 0.099973 -n 72 -e 999.908620
N -t 0.099973 -n 90 -e 999.908692
N -t 0.099973 -n 94 -e 999.908656
N -t 0.099973 -n 71 -e 999.908656
N -t 0.099973 -n 80 -e 999.908692
N -t 0.099973 -n 73 -e 999.908620
N -t 0.099973 -n 84 -e 999.908656
N -t 0.099974 -n 70 -e 999.908656
N -t 0.099974 -n 74 -e 999.908656
N -t 0.099974 -n 62 -e 999.908584
N -t 0.099974 -n 95 -e 999.908656
N -t 0.099974 -n 61 -e 999.908620
N -t 0.099974 -n 63 -e 999.908584
N -t 0.099974 -n 85 -e 999.908656
N -t 0.099974 -n 60 -e 999.908620
N -t 0.099974 -n 64 -e 999.908584
N -t 0.099974 -n 75 -e 999.908656
N -t 0.099974 -n 52 -e 999.908547
N -t 0.099974 -n 96 -e 999.908655
N -t 0.099974 -n 51 -e 999.908583
N -t 0.099974 -n 53 -e 999.908547
N -t 0.099974 -n 86 -e 999.908655
N -t 0.099974 -n 65 -e 999.908655
N -t 0.099974 -n 50 -e 999.908583
N -t 0.099974 -n 54 -e 999.908547
N -t 0.099974 -n 76 -e 999.908655
N -t 0.099974 -n 42 -e 999.908511
N -t 0.099974 -n 55 -e 999.908547
N -t 0.099974 -n 66 -e 999.908655
N -t 0.099974 -n 97 -e 999.908655
N -t 0.099974 -n 41 -e 999.908583
N -t 0.099974 -n 43 -e 999.908511
N -t 0.099974 -n 87 -e 999.908655
N -t 0.099974 -n 40 -e 999.908583
N -t 0.099974 -n 44 -e 999.908547
N -t 0.099974 -n 77 -e 999.908655
r 0.102052976 _82_ MAC  --- 5 message 32 [0 ffffffff 5c 800] [energy 999.908656 ei 0.089 es 0.000 et 0.000 er 0.003] ------- [92:255 -1:255 32 0] 
r 0.102052976 _91_ MAC  --- 5 message 32 [0 ffffffff 5c 800] [energy 999.908692 ei 0.090 es 0.000 et 0.000 er 0.001] ------- [92:255 -1:255 32 0] 
r 0.102052976 _93_ MAC  --- 5 message 32 [0 ffffffff 5c 800] [energy 999.908656 ei 0.089 es 0.000 et 0.000 er 0.003] ------- [92:255 -1:255 32 0] 
r 0.102053114 _81_ MAC  --- 5 message 32 [0 ffffffff 5c 800] [energy 999.908692 ei 0.090 es 0.000 et 0.000 er 0.001] ------- [92:255 -1:255 32 0] 
r 0.102053114 _83_ MAC  --- 5 message 32 [0 ffffffff 5c 800] [energy 999.908656 ei 0.089 es 0.000 et 0.000 er 0.003] ------- [92:255 -1:255 32 0] 
r 0.102053309 _72_ MAC  --- 5 message 32 [0 ffffffff 5c 800] [energy 999.908620 ei 0.087 es 0.000 et 0.000 er 0.004] ------- [92:255 -1:255 32 0] 
r 0.102053309 _90_ MAC  --- 5 message 32 [0 ffffffff 5c 800] [energy 999.908692 ei 0.090 es 0.000 et 0.000 er 0.001] ------- [92:255 -1:255 32 0] 
r 0.102053309 _94_ MAC  --- 5 message 32 [0 ffffffff 5c 800] [energy 999.908656 ei 0.089 es 0.000 et 0.000 er 0.003] ------- [92:255 -1:255 32 0] 
r 0.102053388 _71_ MAC  --- 5 message 32 [0 ffffffff 5c 800] [energy 999.908656 ei 0.089 es 0.000 et 0.000 er 0.003] ------- [92:255 -1:255 32 0] 
r 0.102053388 _80_ MAC  --- 5 message 32 [0 ffffffff 5c 800] [energy 999.908692 ei 0.090 es 0.000 et 0.000 er 0.001] ------- [92:255 -1:255 32 0] 
r 0.102053388 _73_ MAC  --- 5 message 32 [0 ffffffff 5c 800] [energy 999.908620 ei 0.087 es 0.000 et 0.000 er 0.004] ------- [92:255 -1:255 32 0] 
r 0.102053388 _84_ MAC  --- 5 message 32 [0 ffffffff 5c 800] [energy 999.908656 ei 0.089 es 0.000 et 0.000 er 0.003] ------- [92:255 -1:255 32 0] 
s 0.118412320 _27_ MAC  --- 6 message 39 [0 ffffffff 1b 800] [energy 999.893486 ei 0.102 es 0.000 et 0.000 er 0.004] ------- [27:255 -1:255 32 0] 
N -t 0.118413 -n 17 -e 999.891989
N -t 0.118413 -n 26 -e 999.891953
N -t 0.118413 -n 37 -e 999.891989
N -t 0.118413 -n 28 -e 999.892025
N -t 0.118413 -n 36 -e 999.891952
N -t 0.118413 -n 16 -e 999.891952
N -t 0.118413 -n 18 -e 999.892024
N -t 0.118413 -n 38 -e 999.892024
N -t 0.118413 -n 7 -e 999.892024
N -t 0.118413 -n 25 -e 999.891916
N -t 0.118413 -n 47 -e 999.892024
N -t 0.118413 -n 29 -e 999.892024
N -t 0.118413 -n 46 -e 999.891952
N -t 0.118413 -n 6 -e 999.891988
N -t 0.118413 -n 35 -e 999.891952
N -t 0.118413 -n 15 -e 999.891916
N -t 0.118413 -n 8 -e 999.892060
N -t 0.118413 -n 48 -e 999.892024
N -t 0.118413 -n 19 -e 999.892024
N -t 0.118413 -n 39 -e 999.892024
N -t 0.118413 -n 45 -e 999.891952
N -t 0.118413 -n 5 -e 999.891224
N -t 0.118413 -n 9 -e 999.892060
N -t 0.118413 -n 49 -e 999.892060
N -t 0.118413 -n 24 -e 999.891916
N -t 0.118413 -n 57 -e 999.892024
N -t 0.118413 -n 56 -e 999.892024
N -t 0.118413 -n 34 -e 999.891916
N -t 0.118413 -n 14 -e 999.891952
N -t 0.118413 -n 58 -e 999.892060
N -t 0.118414 -n 55 -e 999.891916
N -t 0.118414 -n 44 -e 999.891916
N -t 0.118414 -n 4 -e 999.891952
N -t 0.118414 -n 59 -e 999.892060
N -t 0.118414 -n 23 -e 999.891952
N -t 0.118414 -n 67 -e 999.891332
N -t 0.118414 -n 66 -e 999.892024
N -t 0.118414 -n 33 -e 999.891916
N -t 0.118414 -n 13 -e 999.891952
N -t 0.118414 -n 68 -e 999.892060
N -t 0.118414 -n 54 -e 999.891916
N -t 0.118414 -n 65 -e 999.892024
N -t 0.118414 -n 43 -e 999.891880
N -t 0.118414 -n 3 -e 999.891952
N -t 0.118414 -n 69 -e 999.892060
N -t 0.118414 -n 64 -e 999.891951
N -t 0.118414 -n 53 -e 999.891915
N -t 0.118414 -n 22 -e 999.891951
N -t 0.118414 -n 77 -e 999.892023
N -t 0.118414 -n 76 -e 999.892023
N -t 0.118414 -n 32 -e 999.891951
N -t 0.118414 -n 12 -e 999.890997
N -t 0.118414 -n 78 -e 999.892059
N -t 0.118414 -n 75 -e 999.892023
N -t 0.118414 -n 42 -e 999.891879
N -t 0.118414 -n 2 -e 999.891951
N -t 0.118414 -n 79 -e 999.892059
r 0.120492653 _17_ MAC  --- 6 message 32 [0 ffffffff 1b 800] [energy 999.891989 ei 0.103 es 0.000 et 0.000 er 0.005] ------- [27:255 -1:255 32 0] 
r 0.120492653 _26_ MAC  --- 6 message 32 [0 ffffffff 1b 800] [energy 999.891953 ei 0.101 es 0.000 et 0.000 er 0.007] ------- [27:255 -1:255 32 0] 
r 0.120492653 _37_ MAC  --- 6 message 32 [0 ffffffff 1b 800] [energy 999.891989 ei 0.103 es 0.000 et 0.000 er 0.005] ------- [27:255 -1:255 32 0] 
r 0.120492653 _28_ MAC  --- 6 message 32 [0 ffffffff 1b 800] [energy 999.892025 ei 0.104 es 0.000 et 0.000 er 0.004] ------- [27:255 -1:255 32 0] 
r 0.120492791 _36_ MAC  --- 6 message 32 [0 ffffffff 1b 800] [energy 999.891952 ei 0.101 es 0.000 et 0.000 er 0.007] ------- [27:255 -1:255 32 0] 
r 0.120492791 _16_ MAC  --- 6 message 32 [0 ffffffff 1b 800] [energy 999.891952 ei 0.101 es 0.000 et 0.000 er 0.007] ------- [27:255 -1:255 32 0] 
r 0.120492791 _18_ MAC  --- 6 message 32 [0 ffffffff 1b 800] [energy 999.892024 ei 0.104 es 0.000 et 0.000 er 0.004] ------- [27:255 -1:255 32 0] 
r 0.120492791 _38_ MAC  --- 6 message 32 [0 ffffffff 1b 800] [energy 999.892024 ei 0.104 es 0.000 et 0.000 er 0.004] ------- [27:255 -1:255 32 0] 
r 0.120492986 _7_ MAC  --- 6 message 32 [0 ffffffff 1b 800] [energy 999.892024 ei 0.104 es 0.000 et 0.000 er 0.004] ------- [27:255 -1:255 32 0] 
r 0.120492986 _25_ MAC  --- 6 message 32 [0 ffffffff 1b 800] [energy 999.891916 ei 0.100 es 0.000 et 0.000 er 0.008] ------- [27:255 -1:255 32 0] 
r 0.120492986 _47_ MAC  --- 6 message 32 [0 ffffffff 1b 800] [energy 999.892024 ei 0.104 es 0.000 et 0.000 er 0.004] ------- [27:255 -1:255 32 0] 
r 0.120492986 _29_ MAC  --- 6 message 32 [0 ffffffff 1b 800] [energy 999.892024 ei 0.104 es 0.000 et 0.000 er 0.004] ------- [27:255 -1:255 32 0] 
r 0.120493065 _46_ MAC  --- 6 message 32 [0 ffffffff 1b 800] [energy 999.891952 ei 0.101 es 0.000 et 0.000 er 0.007] ------- [27:255 -1:255 32 0] 
r 0.120493065 _6_ MAC  --- 6 message 32 [0 ffffffff 1b 800] [energy 999.891988 ei 0.103 es 0.000 et 0.000 er 0.005] ------- [27:255 -1:255 32 0] 
r 0.120493065 _35_ MAC  --- 6 message 32 [0 ffffffff 1b 800] [energy 999.891952 ei 0.101 es 0.000 et 0.000 er 0.007] ------- [27:255 -1:255 32 0] 
r 0.120493065 _15_ MAC  --- 6 message 32 [0 ffffffff 1b 800] [energy 999.891916 ei 0.100 es 0.000 et 0.000 er 0.008] ------- [27:255 -1:255 32 0] 
r 0.120493065 _8_ MAC  --- 6 message 32 [0 ffffffff 1b 800] [energy 999.892060 ei 0.105 es 0.000 et 0.000 er 0.003] ------- [27:255 -1:255 32 0] 
r 0.120493065 _48_ MAC  --- 6 message 32 [0 ffffffff 1b 800] [energy 999.892024 ei 0.104 es 0.000 et 0.000 er 0.004] ------- [27:255 -1:255 32 0] 
r 0.120493065 _19_ MAC  --- 6 message 32 [0 ffffffff 1b 800] [energy 999.892024 ei 0.104 es 0.000 et 0.000 er 0.004] ------- [27:255 -1:255 32 0] 
r 0.120493065 _39_ MAC  --- 6 message 32 [0 ffffffff 1b 800] [energy 999.892024 ei 0.104 es 0.000 et 0.000 er 0.004] ------- [27:255 -1:255 32 0] 
s 0.136244763 _44_ MAC  --- 7 message 39 [0 ffffffff 2c 800] [energy 999.877329 ei 0.114 es 0.000 et 0.000 er 0.008] ------- [44:255 -1:255 32 0] 
N -t 0.136245 -n 34 -e 999.875831
N -t 0.136245 -n 43 -e 999.875795
N -t 0.136245 -n 54 -e 999.875831
N -t 0.136245 -n 45 -e 999.875867
N -t 0.136245 -n 53 -e 999.875831
N -t 0.136245 -n 33 -e 999.875831
N -t 0.136245 -n 35 -e 999.875867
N -t 0.136245 -n 55 -e 999.875831
N -t 0.136245 -n 24 -e 999.875831
N -t 0.136245 -n 42 -e 999.875795
N -t 0.136245 -n 64 -e 999.875867
N -t 0.136245 -n 46 -e 999.875867
N -t 0.136246 -n 63 -e 999.875903
N -t 0.136246 -n 23 -e 999.875867
N -t 0.136246 -n 52 -e 999.875867
N -t 0.136246 -n 32 -e 999.875867
N -t 0.136246 -n 25 -e 999.875831
N -t 0.136246 -n 65 -e 999.875939
N -t 0.136246 -n 36 -e 999.875867
N -t 0.136246 -n 56 -e 999.875939
N -t 0.136246 -n 62 -e 999.875903
N -t 0.136246 -n 22 -e 999.875867
N -t 0.136246 -n 26 -e 999.875867
N -t 0.136246 -n 66 -e 999.875939
N -t 0.136246 -n 14 -e 999.875867
N -t 0.136246 -n 41 -e 999.875903
N -t 0.136246 -n 74 -e 999.875975
N -t 0.136246 -n 47 -e 999.875939
N -t 0.136246 -n 73 -e 999.875939
N -t 0.136246 -n 13 -e 999.875867
N -t 0.136246 -n 51 -e 999.875903
N -t 0.136246 -n 31 -e 999.875903
N -t 0.136246 -n 15 -e 999.875831
N -t 0.136246 -n 75 -e 999.875939
N -t 0.136246 -n 37 -e 999.875903
N -t 0.136246 -n 57 -e 999.875939
N -t 0.136246 -n 72 -e 999.875939
N -t 0.136246 -n 12 -e 999.874912
N -t 0.136246 -n 61 -e 999.875939
N -t 0.136246 -n 21 -e 999.875175
N -t 0.136246 -n 16 -e 999.875867
N -t 0.136246 -n 76 -e 999.875939
N -t 0.136246 -n 27 -e 999.875175
N -t 0.136246 -n 67 -e 999.875247
N -t 0.136246 -n 4 -e 999.875867
N -t 0.136246 -n 40 -e 999.875903
N -t 0.136246 -n 84 -e 999.875975
N -t 0.136246 -n 48 -e 999.875939
N -t 0.136246 -n 83 -e 999.875974
N -t 0.136246 -n 3 -e 999.875866
N -t 0.136246 -n 50 -e 999.875902
N -t 0.136246 -n 30 -e 999.875938
N -t 0.136246 -n 5 -e 999.875138
N -t 0.136246 -n 85 -e 999.875974
N -t 0.136246 -n 38 -e 999.875938
N -t 0.136246 -n 58 -e 999.875974
N -t 0.136246 -n 71 -e 999.875974
N -t 0.136246 -n 11 -e 999.875902