s 0.007254951 _98_ MAC  --- 2 message 90 [0 ffffffff 62 800] [energy 1000.000000 ei 0.000 es 0.000 et 0.000 er 0.000] ------- [98:255 -1:255 32 0] 
N -t 0.007255 -n 88 -e 999.992804
N -t 0.007255 -n 97 -e 999.992804
N -t 0.007255 -n 99 -e 999.992804
N -t 0.007255 -n 87 -e 999.992804
N -t 0.007255 -n 89 -e 999.992804
N -t 0.007256 -n 78 -e 999.992804
N -t 0.007256 -n 96 -e 999.992804
N -t 0.007256 -n 77 -e 999.992804
N -t 0.007256 -n 86 -e 999.992804
N -t 0.007256 -n 79 -e 999.992804
N -t 0.007256 -n 76 -e 999.992804
N -t 0.007256 -n 68 -e 999.992804
N -t 0.007256 -n 95 -e 999.992804
N -t 0.007256 -n 67 -e 999.992804
N -t 0.007256 -n 85 -e 999.992804
N -t 0.007256 -n 69 -e 999.992804
N -t 0.007256 -n 66 -e 999.992803
N -t 0.007256 -n 75 -e 999.992803
N -t 0.007256 -n 58 -e 999.992803
N -t 0.007256 -n 94 -e 999.992803
N -t 0.007256 -n 57 -e 999.992803
N -t 0.007256 -n 84 -e 999.992803
N -t 0.007256 -n 59 -e 999.992803
N -t 0.007256 -n 65 -e 999.992803
N -t 0.007256 -n 56 -e 999.992803
N -t 0.007256 -n 74 -e 999.992803
N -t 0.007257 -n 48 -e 999.992803
N -t 0.007257 -n 55 -e 999.992803
N -t 0.007257 -n 64 -e 999.992803
N -t 0.007257 -n 93 -e 999.992803
N -t 0.007257 -n 47 -e 999.992803
N -t 0.007257 -n 83 -e 999.992803
N -t 0.007257 -n 49 -e 999.992803
N -t 0.007257 -n 46 -e 999.992803
N -t 0.007257 -n 73 -e 999.992803
r 0.007975285 _88_ MAC  --- 2 message 32 [0 ffffffff 62 800] [energy 999.992804 ei 0.007 es 0.000 et 0.000 er 0.001] ------- [98:255 -1:255 32 0] 
r 0.007975285 _97_ MAC  --- 2 message 32 [0 ffffffff 62 800] [energy 999.992804 ei 0.007 es 0.000 et 0.000 er 0.001] ------- [98:255 -1:255 32 0] 
r 0.007975285 _99_ MAC  --- 2 message 32 [0 ffffffff 62 800] [energy 999.992804 ei 0.007 es 0.000 et 0.000 er 0.001] ------- [98:255 -1:255 32 0] 
r 0.007975423 _87_ MAC  --- 2 message 32 [0 ffffffff 62 800] [energy 999.992804 ei 0.007 es 0.000 et 0.000 er 0.001] ------- [98:255 -1:255 32 0] 
r 0.007975423 _89_ MAC  --- 2 message 32 [0 ffffffff 62 800] [energy 999.992804 ei 0.007 es 0.000 et 0.000 er 0.001] ------- [98:255 -1:255 32 0] 
r 0.007975618 _78_ MAC  --- 2 message 32 [0 ffffffff 62 800] [energy 999.992804 ei 0.007 es 0.000 et 0.000 er 0.001] ------- [98:255 -1:255 32 0] 
r 0.007975618 _96_ MAC  --- 2 message 32 [0 ffffffff 62 800] [energy 999.992804 ei 0.007 es 0.000 et 0.000 er 0.001] ------- [98:255 -1:255 32 0] 
r 0.007975697 _77_ MAC  --- 2 message 32 [0 ffffffff 62 800] [energy 999.992804 ei 0.007 es 0.000 et 0.000 er 0.001] ------- [98:255 -1:255 32 0] 
r 0.007975697 _86_ MAC  --- 2 message 32 [0 ffffffff 62 800] [energy 999.992804 ei 0.007 es 0.000 et 0.000 er 0.001] ------- [98:255 -1:255 32 0] 
r 0.007975697 _79_ MAC  --- 2 message 32 [0 ffffffff 62 800] [energy 999.992804 ei 0.007 es 0.000 et 0.000 er 0.001] ------- [98:255 -1:255 32 0] 
s 0.009072473 _0_ MAC  --- 1 message 90 [0 ffffffff 0 800] [energy 1000.000000 ei 0.000 es 0.000 et 0.000 er 0.000] ------- [0:255 -1:255 32 0] 
N -t 0.009073 -n 10 -e 999.991168
N -t 0.009073 -n 1 -e 999.991168
N -t 0.009073 -n 11 -e 999.991168
N -t 0.009073 -n 20 -e 999.991168
N -t 0.009073 -n 2 -e 999.991168
N -t 0.009073 -n 21 -e 999.991168
N -t 0.009073 -n 12 -e 999.991168
N -t 0.009073 -n 22 -e 999.991168
N -t 0.009073 -n 30 -e 999.991168
N -t 0.009073 -n 3 -e 999.991168
N -t 0.009074 -n 31 -e 999.991168
N -t 0.009074 -n 13 -e 999.991168
N -t 0.009074 -n 32 -e 999.991168
N -t 0.009074 -n 23 -e 999.991168
N -t 0.009074 -n 40 -e 999.991168
N -t 0.009074 -n 4 -e 999.991168
N -t 0.009074 -n 41 -e 999.991168
N -t 0.009074 -n 14 -e 999.991168
N -t 0.009074 -n 33 -e 999.991168
N -t 0.009074 -n 42 -e 999.991167
N -t 0.009074 -n 24 -e 999.991167
N -t 0.009074 -n 50 -e 999.991167
N -t 0.009074 -n 43 -e 999.991167
N -t 0.009074 -n 34 -e 999.991167
N -t 0.009074 -n 5 -e 999.991167
N -t 0.009074 -n 51 -e 999.991167
N -t 0.009074 -n 15 -e 999.991167
N -t 0.009074 -n 52 -e 999.991167
N -t 0.009074 -n 25 -e 999.991167
s 0.009336653 _90_ MAC  --- 0 message 90 [0 ffffffff 5a 800] [energy 1000.000000 ei 0.000 es 0.000 et 0.000 er 0.000] ------- [90:255 -1:255 32 0] 
N -t 0.009337 -n 80 -e 999.990931
N -t 0.009337 -n 91 -e 999.990931
N -t 0.009337 -n 81 -e 999.990931
N -t 0.009337 -n 70 -e 999.990930
N -t 0.009337 -n 92 -e 999.990930
N -t 0.009337 -n 71 -e 999.990930
N -t 0.009337 -n 82 -e 999.990930
N -t 0.009338 -n 72 -e 999.990930
N -t 0.009338 -n 60 -e 999.990930
N -t 0.009338 -n 93 -e 999.990912
N -t 0.009338 -n 61 -e 999.990930
N -t 0.009338 -n 83 -e 999.990912
N -t 0.009338 -n 62 -e 999.990930
N -t 0.009338 -n 73 -e 999.990912
N -t 0.009338 -n 50 -e 999.990923
N -t 0.009338 -n 94 -e 999.990912
N -t 0.009338 -n 51 -e 999.990923
N -t 0.009338 -n 84 -e 999.990912
N -t 0.009338 -n 63 -e 999.990930
N -t 0.009338 -n 52 -e 999.990923
N -t 0.009338 -n 74 -e 999.990912
N -t 0.009338 -n 40 -e 999.990923
N -t 0.009338 -n 53 -e 999.990930
N -t 0.009338 -n 64 -e 999.990912
N -t 0.009338 -n 95 -e 999.990912
N -t 0.009338 -n 41 -e 999.990923
N -t 0.009338 -n 85 -e 999.990911
N -t 0.009338 -n 42 -e 999.990923
N -t 0.009338 -n 75 -e 999.990911
r 0.009792806 _10_ MAC  --- 1 message 32 [0 ffffffff 0 800] [energy 999.991168 ei 0.008 es 0.000 et 0.000 er 0.001] ------- [0:255 -1:255 32 0] 
r 0.009792806 _1_ MAC  --- 1 message 32 [0 ffffffff 0 800] [energy 999.991168 ei 0.008 es 0.000 et 0.000 er 0.001] ------- [0:255 -1:255 32 0] 
r 0.009792944 _11_ MAC  --- 1 message 32 [0 ffffffff 0 800] [energy 999.991168 ei 0.008 es 0.000 et 0.000 er 0.001] ------- [0:255 -1:255 32 0] 
r 0.009793139 _20_ MAC  --- 1 message 32 [0 ffffffff 0 800] [energy 999.991168 ei 0.008 es 0.000 et 0.000 er 0.001] ------- [0:255 -1:255 32 0] 
r 0.009793139 _2_ MAC  --- 1 message 32 [0 ffffffff 0 800] [energy 999.991168 ei 0.008 es 0.000 et 0.000 er 0.001] ------- [0:255 -1:255 32 0] 
r 0.009793218 _21_ MAC  --- 1 message 32 [0 ffffffff 0 800] [energy 999.991168 ei 0.008 es 0.000 et 0.000 er 0.001] ------- [0:255 -1:255 32 0] 
r 0.009793218 _12_ MAC  --- 1 message 32 [0 ffffffff 0 800] [energy 999.991168 ei 0.008 es 0.000 et 0.000 er 0.001] ------- [0:255 -1:255 32 0] 
r 0.010056986 _80_ MAC  --- 0 message 32 [0 ffffffff 5a 800] [energy 999.990931 ei 0.008 es 0.000 et 0.000 er 0.001] ------- [90:255 -1:255 32 0] 
r 0.010056986 _91_ MAC  --- 0 message 32 [0 ffffffff 5a 800] [energy 999.990931 ei 0.008 es 0.000 et 0.000 er 0.001] ------- [90:255 -1:255 32 0] 
r 0.010057124 _81_ MAC  --- 0 message 32 [0 ffffffff 5a 800] [energy 999.990931 ei 0.008 es 0.000 et 0.000 er 0.001] ------- [90:255 -1:255 32 0] 
r 0.010057319 _70_ MAC  --- 0 message 32 [0 ffffffff 5a 800] [energy 999.990930 ei 0.008 es 0.000 et 0.000 er 0.001] ------- [90:255 -1:255 32 0] 
r 0.010057319 _92_ MAC  --- 0 message 32 [0 ffffffff 5a 800] [energy 999.990930 ei 0.008 es 0.000 et 0.000 er 0.001] ------- [90:255 -1:255 32 0] 
r 0.010057398 _71_ MAC  --- 0 message 32 [0 ffffffff 5a 800] [energy 999.990930 ei 0.008 es 0.000 et 0.000 er 0.001] ------- [90:255 -1:255 32 0] 
r 0.010057398 _82_ MAC  --- 0 message 32 [0 ffffffff 5a 800] [energy 999.990930 ei 0.008 es 0.000 et 0.000 er 0.001] ------- [90:255 -1:255 32 0] 
s 0.026510821 _44_ MAC  --- 3 message 90 [0 ffffffff 2c 800] [energy 1000.000000 ei 0.000 es 0.000 et 0.000 er 0.000] ------- [44:255 -1:255 32 0] 
N -t 0.026511 -n 34 -e 999.975456
N -t 0.026511 -n 43 -e 999.975456
N -t 0.026511 -n 54 -e 999.975474
N -t 0.026511 -n 45 -e 999.975474
N -t 0.026511 -n 53 -e 999.975456
N -t 0.026511 -n 33 -e 999.975456
N -t 0.026511 -n 35 -e 999.975474
N -t 0.026511 -n 55 -e 999.975456
N -t 0.026511 -n 24 -e 999.975456
N -t 0.026511 -n 42 -e 999.975449
N -t 0.026511 -n 64 -e 999.975438
N -t 0.026511 -n 46 -e 999.975456
N -t 0.026512 -n 63 -e 999.975456
N -t 0.026512 -n 23 -e 999.975456
N -t 0.026512 -n 52 -e 999.975449
N -t 0.026512 -n 32 -e 999.975456
N -t 0.026512 -n 25 -e 999.975456
N -t 0.026512 -n 65 -e 999.975456
N -t 0.026512 -n 36 -e 999.975474
N -t 0.026512 -n 56 -e 999.975456
N -t 0.026512 -n 62 -e 999.975455
N -t 0.026512 -n 22 -e 999.975455
N -t 0.026512 -n 26 -e 999.975473
N -t 0.026512 -n 66 -e 999.975455
N -t 0.026512 -n 14 -e 999.975455
N -t 0.026512 -n 41 -e 999.975449
N -t 0.026512 -n 74 -e 999.975437
N -t 0.026512 -n 47 -e 999.975455
N -t 0.026512 -n 73 -e 999.975437
N -t 0.026512 -n 13 -e 999.975455
N -t 0.026512 -n 51 -e 999.975449
N -t 0.026512 -n 31 -e 999.975455
N -t 0.026512 -n 15 -e 999.975455
N -t 0.026512 -n 75 -e 999.975437
N -t 0.026512 -n 37 -e 999.975473
N -t 0.026512 -n 57 -e 999.975455
N -t 0.026512 -n 72 -e 999.975455
N -t 0.026512 -n 12 -e 999.975455
N -t 0.026512 -n 61 -e 999.975455
N -t 0.026512 -n 21 -e 999.975455
N -t 0.026512 -n 16 -e 999.975473
N -t 0.026512 -n 76 -e 999.975455
N -t 0.026512 -n 27 -e 999.975473
N -t 0.026512 -n 67 -e 999.975455
N -t 0.026512 -n 4 -e 999.975455
N -t 0.026512 -n 40 -e 999.975448
N -t 0.026512 -n 84 -e 999.975437
N -t 0.026512 -n 48 -e 999.975455
N -t 0.026512 -n 83 -e 999.975437
N -t 0.026512 -n 3 -e 999.975455
N -t 0.026512 -n 50 -e 999.975448
N -t 0.026512 -n 30 -e 999.975455
N -t 0.026512 -n 5 -e 999.975455
N -t 0.026512 -n 85 -e 999.975437
N -t 0.026512 -n 38 -e 999.975473
N -t 0.026512 -n 58 -e 999.975455
N -t 0.026512 -n 71 -e 999.975455
N -t 0.026512 -n 11 -e 999.975455
N -t 0.026512 -n 17 -e 999.975473
N -t 0.026512 -n 77 -e 999.975455
N -t 0.026512 -n 82 -e 999.975455
N -t 0.026512 -n 2 -e 999.975455
N -t 0.026512 -n 60 -e 999.975455
N -t 0.026512 -n 20 -e 999.975455
N -t 0.026512 -n 6 -e 999.975473
N -t 0.026512 -n 86 -e 999.975455
N -t 0.026512 -n 28 -e 999.975473
N -t 0.026512 -n 68 -e 999.975455
N -t 0.026512 -n 81 -e 999.975455
N -t 0.026512 -n 1 -e 999.975455
N -t 0.026512 -n 70 -e 999.975455
N -t 0.026512 -n 10 -e 999.975455
N -t 0.026512 -n 94 -e 999.975437
N -t 0.026512 -n 7 -e 999.975473
N -t 0.026512 -n 87 -e 999.975455
N -t 0.026512 -n 18 -e 999.975473
N -t 0.026512 -n 78 -e 999.975455
N -t 0.026512 -n 49 -e 999.975455
N -t 0.026513 -n 93 -e 999.975437
N -t 0.026513 -n 95 -e 999.975437
N -t 0.026513 -n 39 -e 999.975473
N -t 0.026513 -n 59 -e 999.975455
N -t 0.026513 -n 92 -e 999.975455
N -t 0.026513 -n 96 -e 999.975455
N -t 0.026513 -n 29 -e 999.975473
N -t 0.026513 -n 69 -e 999.975455
r 0.027231154 _34_ MAC  --- 3 message 32 [0 ffffffff 2c 800] [energy 999.975456 ei 0.023 es 0.000 et 0.000 er 0.001] ------- [44:255 -1:255 32 0] 
r 0.027231154 _43_ MAC  --- 3 message 32 [0 ffffffff 2c 800] [energy 999.975456 ei 0.023 es 0.000 et 0.000 er 0.001] ------- [44:255 -1:255 32 0] 
r 0.027231154 _54_ MAC  --- 3 message 32 [0 ffffffff 2c 800] [energy 999.975474 ei 0.024 es 0.000 et 0.000 er 0.001] ------- [44:255 -1:255 32 0] 
r 0.027231154 _45_ MAC  --- 3 message 32 [0 ffffffff 2c 800] [energy 999.975474 ei 0.024 es 0.000 et 0.000 er 0.001] ------- [44:255 -1:255 32 0] 
r 0.027231292 _53_ MAC  --- 3 message 32 [0 ffffffff 2c 800] [energy 999.975456 ei 0.023 es 0.000 et 0.000 er 0.001] ------- [44:255 -1:255 32 0] 
r 0.027231292 _33_ MAC  --- 3 message 32 [0 ffffffff 2c 800] [energy 999.975456 ei 0.023 es 0.000 et 0.000 er 0.001] ------- [44:255 -1:255 32 0] 
r 0.027231292 _35_ MAC  --- 3 message 32 [0 ffffffff 2c 800] [energy 999.975474 ei 0.024 es 0.000 et 0.000 er 0.001] ------- [44:255 -1:255 32 0] 
r 0.027231292 _55_ MAC  --- 3 message 32 [0 ffffffff 2c 800] [energy 999.975456 ei 0.023 es 0.000 et 0.000 er 0.001] ------- [44:255 -1:255 32 0] 
r 0.027231487 _24_ MAC  --- 3 message 32 [0 ffffffff 2c 800] [energy 999.975456 ei 0.023 es 0.000 et 0.000 er 0.001] ------- [44:255 -1:255 32 0] 
r 0.027231487 _42_ MAC  --- 3 message 32 [0 ffffffff 2c 800] [energy 999.975449 ei 0.023 es 0.000 et 0.000 er 0.002] ------- [44:255 -1:255 32 0] 
r 0.027231487 _64_ MAC  --- 3 message 32 [0 ffffffff 2c 800] [energy 999.975438 ei 0.023 es 0.000 et 0.000 er 0.002] ------- [44:255 -1:255 32 0] 
r 0.027231487 _46_ MAC  --- 3 message 32 [0 ffffffff 2c 800] [energy 999.975456 ei 0.023 es 0.000 et 0.000 er 0.001] ------- [44:255 -1:255 32 0] 
r 0.027231566 _63_ MAC  --- 3 message 32 [0 ffffffff 2c 800] [energy 999.975456 ei 0.023 es 0.000 et 0.000 er 0.001] ------- [44:255 -1:255 32 0] 
r 0.027231566 _23_ MAC  --- 3 message 32 [0 ffffffff 2c 800] [energy 999.975456 ei 0.023 es 0.000 et 0.000 er 0.001] ------- [44:255 -1:255 32 0] 
r 0.027231566 _52_ MAC  --- 3 message 32 [0 ffffffff 2c 800] [energy 999.975449 ei 0.023 es 0.000 et 0.000 er 0.002] ------- [44:255 -1:255 32 0] 
r 0.027231566 _32_ MAC  --- 3 message 32 [0 ffffffff 2c 800] [energy 999.975456 ei 0.023 es 0.000 et 0.000 er 0.001] ------- [44:255 -1:255 32 0] 
r 0.027231566 _25_ MAC  --- 3 message 32 [0 ffffffff 2c 800] [energy 999.975456 ei 0.023 es 0.000 et 0.000 er 0.001] ------- [44:255 -1:255 32 0] 
r 0.027231566 _65_ MAC  --- 3 message 32 [0 ffffffff 2c 800] [energy 999.975456 ei 0.023 es 0.000 et 0.000 er 0.001] ------- [44:255 -1:255 32 0] 
r 0.027231566 _36_ MAC  --- 3 message 32 [0 ffffffff 2c 800] [energy 999.975474 ei 0.024 es 0.000 et 0.000 er 0.001] ------- [44:255 -1:255 32 0] 
r 0.027231566 _56_ MAC  --- 3 message 32 [0 ffffffff 2c 800] [energy 999.975456 ei 0.023 es 0.000 et 0.000 er 0.001] ------- [44:255 -1:255 32 0] 
s 0.037738468 _2_ MAC  --- 4 message 90 [0 ffffffff 2 800] [energy 999.975455 ei 0.023 es 0.000 et 0.000 er 0.001] ------- [2:255 -1:255 32 0] 
N -t 0.037739 -n 1 -e 999.965333
N -t 0.037739 -n 12 -e 999.965333
N -t 0.037739 -n 3 -e 999.965333
N -t 0.037739 -n 11 -e 999.965333
N -t 0.037739 -n 13 -e 999.965333
N -t 0.037739 -n 0 -e 999.964991
N -t 0.037739 -n 22 -e 999.965333
N -t 0.037739 -n 4 -e 999.965333
N -t 0.037739 -n 21 -e 999.965333
N -t 0.037739 -n 10 -e 999.965333
N -t 0.037739 -n 23 -e 999.965333
N -t 0.037739 -n 14 -e 999.965333
N -t 0.037739 -n 20 -e 999.965333
N -t 0.037739 -n 24 -e 999.965333
N -t 0.037739 -n 32 -e 999.965332
N -t 0.037739 -n 5 -e 999.965332
N -t 0.037740 -n 31 -e 999.965332
N -t 0.037740 -n 33 -e 999.965332
N -t 0.037740 -n 15 -e 999.965332
N -t 0.037740 -n 30 -e 999.965332
N -t 0.037740 -n 34 -e 999.965332
N -t 0.037740 -n 25 -e 999.965332
N -t 0.037740 -n 42 -e 999.965326
N -t 0.037740 -n 6 -e 999.965350
N -t 0.037740 -n 41 -e 999.965326
N -t 0.037740 -n 43 -e 999.965332
N -t 0.037740 -n 16 -e 999.965350
N -t 0.037740 -n 35 -e 999.965350
N -t 0.037740 -n 40 -e 999.965325
N -t 0.037740 -n 44 -e 999.964990
N -t 0.037740 -n 26 -e 999.965350
N -t 0.037740 -n 52 -e 999.965325
N -t 0.037740 -n 45 -e 999.965350
N -t 0.037740 -n 36 -e 999.965350
N -t 0.037740 -n 7 -e 999.965350
N -t 0.037740 -n 51 -e 999.965325
N -t 0.037740 -n 53 -e 999.965332
N -t 0.037740 -n 17 -e 999.965350
N -t 0.037740 -n 50 -e 999.965325
N -t 0.037740 -n 54 -e 999.965350
N -t 0.037740 -n 27 -e 999.965350
r 0.038458801 _1_ MAC  --- 4 message 32 [0 ffffffff 2 800] [energy 999.965333 ei 0.033 es 0.000 et 0.000 er 0.002] ------- [2:255 -1:255 32 0] 
r 0.038458801 _12_ MAC  --- 4 message 32 [0 ffffffff 2 800] [energy 999.965333 ei 0.033 es 0.000 et 0.000 er 0.002] ------- [2:255 -1:255 32 0] 
r 0.038458801 _3_ MAC  --- 4 message 32 [0 ffffffff 2 800] [energy 999.965333 ei 0.033 es 0.000 et 0.000 er 0.002] ------- [2:255 -1:255 32 0] 
r 0.038458939 _11_ MAC  --- 4 message 32 [0 ffffffff 2 800] [energy 999.965333 ei 0.033 es 0.000 et 0.000 er 0.002] ------- [2:255 -1:255 32 0] 
r 0.038458939 _13_ MAC  --- 4 message 32 [0 ffffffff 2 800] [energy 999.965333 ei 0.033 es 0.000 et 0.000 er 0.002] ------- [2:255 -1:255 32 0] 
r 0.038459134 _0_ MAC  --- 4 message 32 [0 ffffffff 2 800] [energy 999.964991 ei 0.033 es 0.000 et 0.001 er 0.001] ------- [2:255 -1:255 32 0] 
r 0.038459134 _22_ MAC  --- 4 message 32 [0 ffffffff 2 800] [energy 999.965333 ei 0.033 es 0.000 et 0.000 er 0.002] ------- [2:255 -1:255 32 0] 
r 0.038459134 _4_ MAC  --- 4 message 32 [0 ffffffff 2 800] [energy 999.965333 ei 0.033 es 0.000 et 0.000 er 0.002] ------- [2:255 -1:255 32 0] 
r 0.038459213 _21_ MAC  --- 4 message 32 [0 ffffffff 2 800] [energy 999.965333 ei 0.033 es 0.000 et 0.000 er 0.002] ------- [2:255 -1:255 32 0] 
r 0.038459213 _10_ MAC  --- 4 message 32 [0 ffffffff 2 800] [energy 999.965333 ei 0.033 es 0.000 et 0.000 er 0.002] ------- [2:255 -1:255 32 0] 
r 0.038459213 _23_ MAC  --- 4 message 32 [0 ffffffff 2 800] [energy 999.965333 ei 0.033 es 0.000 et 0.000 er 0.002] ------- [2:255 -1:255 32 0] 
r 0.038459213 _14_ MAC  --- 4 message 32 [0 ffffffff 2 800] [energy 999.965333 ei 0.033 es 0.000 et 0.000 er 0.002] ------- [2:255 -1:255 32 0] 
s 0.059704736 _56_ MAC  --- 5 message 90 [0 ffffffff 38 800] [energy 999.975456 ei 0.023 es 0.000 et 0.000 er 0.001] ------- [56:255 -1:255 32 0] 
N -t 0.059705 -n 46 -e 999.945563
N -t 0.059705 -n 55 -e 999.945563
N -t 0.059705 -n 66 -e 999.945563
N -t 0.059705 -n 57 -e 999.945563
N -t 0.059705 -n 65 -e 999.945563
N -t 0.059705 -n 45 -e 999.945563
N -t 0.059705 -n 47 -e 999.945563
N -t 0.059705 -n 67 -e 999.945563
N -t 0.059705 -n 36 -e 999.945563
N -t 0.059705 -n 54 -e 999.945563
N -t 0.059705 -n 76 -e 999.945563
N -t 0.059705 -n 58 -e 999.945563
N -t 0.059705 -n 75 -e 999.945545
N -t 0.059705 -n 35 -e 999.945563
N -t 0.059705 -n 64 -e 999.945545
N -t 0.059705 -n 44 -e 999.945203
N -t 0.059705 -n 37 -e 999.945581
N -t 0.059705 -n 77 -e 999.945563
N -t 0.059705 -n 48 -e 999.945563
N -t 0.059705 -n 68 -e 999.945563
N -t 0.059706 -n 74 -e 999.945545
N -t 0.059706 -n 34 -e 999.945545
N -t 0.059706 -n 38 -e 999.945581
N -t 0.059706 -n 78 -e 999.945563
N -t 0.059706 -n 26 -e 999.945563
N -t 0.059706 -n 53 -e 999.945545
N -t 0.059706 -n 86 -e 999.945563
N -t 0.059706 -n 59 -e 999.945563
N -t 0.059706 -n 85 -e 999.945545
N -t 0.059706 -n 25 -e 999.945545
N -t 0.059706 -n 63 -e 999.945563
N -t 0.059706 -n 43 -e 999.945545
N -t 0.059706 -n 27 -e 999.945563
N -t 0.059706 -n 87 -e 999.945563
N -t 0.059706 -n 49 -e 999.945563
N -t 0.059706 -n 69 -e 999.945563
N -t 0.059706 -n 84 -e 999.945545
N -t 0.059706 -n 24 -e 999.945545
N -t 0.059706 -n 73 -e 999.945545
N -t 0.059706 -n 33 -e 999.945545
N -t 0.059706 -n 28 -e 999.945581
N -t 0.059706 -n 88 -e 999.945581
N -t 0.059706 -n 39 -e 999.945581
N -t 0.059706 -n 79 -e 999.945581
N -t 0.059706 -n 16 -e 999.945563
N -t 0.059706 -n 52 -e 999.945538
N -t 0.059706 -n 96 -e 999.945563
N -t 0.059706 -n 95 -e 999.945545
N -t 0.059706 -n 15 -e 999.945545
N -t 0.059706 -n 62 -e 999.945563
N -t 0.059706 -n 42 -e 999.945538
N -t 0.059706 -n 17 -e 999.945563
N -t 0.059706 -n 97 -e 999.945581
N -t 0.059706 -n 83 -e 999.945544
N -t 0.059706 -n 23 -e 999.945544
N -t 0.059706 -n 29 -e 999.945580
N -t 0.059706 -n 89 -e 999.945580
N -t 0.059706 -n 94 -e 999.945544
N -t 0.059706 -n 14 -e 999.945544
N -t 0.059706 -n 72 -e 999.945562
N -t 0.059706 -n 32 -e 999.945544
N -t 0.059706 -n 18 -e 999.945580
N -t 0.059706 -n 98 -e 999.945220
N -t 0.059706 -n 6 -e 999.945562
N -t 0.059706 -n 93 -e 999.945544
N -t 0.059706 -n 13 -e 999.945544
N -t 0.059706 -n 82 -e 999.945562
N -t 0.059706 -n 22 -e 999.945544
N -t 0.059706 -n 51 -e 999.945538
N -t 0.059706 -n 19 -e 999.945598
N -t 0.059706 -n 99 -e 999.945580
N -t 0.059706 -n 5 -e 999.945544
N -t 0.059706 -n 61 -e 999.945562
N -t 0.059706 -n 41 -e 999.945538
N -t 0.059706 -n 7 -e 999.945562
N -t 0.059707 -n 4 -e 999.945544
N -t 0.059707 -n 71 -e 999.945562
N -t 0.059707 -n 31 -e 999.945544
N -t 0.059707 -n 8 -e 999.945598
r 0.060425069 _46_ MAC  --- 5 message 32 [0 ffffffff 38 800] [energy 999.945563 ei 0.052 es 0.000 et 0.000 er 0.002] ------- [56:255 -1:255 32 0] 
r 0.060425069 _55_ MAC  --- 5 message 32 [0 ffffffff 38 800] [energy 999.945563 ei 0.052 es 0.000 et 0.000 er 0.002] ------- [56:255 -1:255 32 0] 
r 0.060425069 _66_ MAC  --- 5 message 32 [0 ffffffff 38 800] [energy 999.945563 ei 0.052 es 0.000 et 0.000 er 0.002] ------- [56:255 -1:255 32 0] 
r 0.060425069 _57_ MAC  --- 5 message 32 [0 ffffffff 38 800] [energy 999.945563 ei 0.052 es 0.000 et 0.000 er 0.002] ------- [56:255 -1:255 32 0] 
r 0.060425207 _65_ MAC  --- 5 message 32 [0 ffffffff 38 800] [energy 999.945563 ei 0.052 es 0.000 et 0.000 er 0.002] ------- [56:255 -1:255 32 0] 
r 0.060425207 _45_ MAC  --- 5 message 32 [0 ffffffff 38 800] [energy 999.945563 ei 0.052 es 0.000 et 0.000 er 0.002] ------- [56:255 -1:255 32 0] 
r 0.060425207 _47_ MAC  --- 5 message 32 [0 ffffffff 38 800] [energy 999.945563 ei 0.052 es 0.000 et 0.000 er 0.002] ------- [56:255 -1:255 32 0] 
r 0.060425207 _67_ MAC  --- 5 message 32 [0 ffffffff 38 800] [energy 999.945563 ei 0.052 es 0.000 et 0.000 er 0.002] ------- [56:255 -1:255 32 0] 
r 0.060425402 _36_ MAC  --- 5 message 32 [0 ffffffff 38 800] [energy 999.945563 ei 0.052 es 0.000 et 0.000 er 0.002] ------- [56:255 -1:255 32 0] 
r 0.060425402 _54_ MAC  --- 5 message 32 [0 ffffffff 38 800] [energy 999.945563 ei 0.052 es 0.000 et 0.000 er 0.002] ------- [56:255 -1:255 32 0] 
r 0.060425402 _76_ MAC  --- 5 message 32 [0 ffffffff 38 800] [energy 999.945563 ei 0.052 es 0.000 et 0.000 er 0.002] ------- [56:255 -1:255 32 0] 
r 0.060425402 _58_ MAC  --- 5 message 32 [0 ffffffff 38 800] [energy 999.945563 ei 0.052 es 0.000 et 0.000 er 0.002] ------- [56:255 -1:255 32 0] 
r 0.060425481 _75_ MAC  --- 5 message 32 [0 ffffffff 38 800] [energy 999.945545 ei 0.052 es 0.000 et 0.000 er 0.003] ------- [56:255 -1:255 32 0] 
r 0.060425481 _35_ MAC  --- 5 message 32 [0 ffffffff 38 800] [energy 999.945563 ei 0.052 es 0.000 et 0.000 er 0.002] ------- [56:255 -1:255 32 0] 
r 0.060425481 _64_ MAC  --- 5 message 32 [0 ffffffff 38 800] [energy 999.945545 ei 0.052 es 0.000 et 0.000 er 0.003] ------- [56:255 -1:255 32 0] 
r 0.060425481 _44_ MAC  --- 5 message 32 [0 ffffffff 38 800] [energy 999.945203 ei 0.052 es 0.000 et 0.001 er 0.001] ------- [56:255 -1:255 32 0] 
r 0.060425481 _37_ MAC  --- 5 message 32 [0 ffffffff 38 800] [energy 999.945581 ei 0.053 es 0.000 et 0.000 er 0.001] ------- [56:255 -1:255 32 0] 
r 0.060425481 _77_ MAC  --- 5 message 32 [0 ffffffff 38 800] [energy 999.945563 ei 0.052 es 0.000 et 0.000 er 0.002] ------- [56:255 -1:255 32 0] 
r 0.060425481 _48_ MAC  --- 5 message 32 [0 ffffffff 38 800] [energy 999.945563 ei 0.052 es 0.000 et 0.000 er 0.002] ------- [56:255 -1:255 32 0] 
r 0.060425481 _68_ MAC  --- 5 message 32 [0 ffffffff 38 800] [energy 999.945563 ei 0.052 es 0.000 et 0.000 er 0.002] ------- [56:255 -1:255 32 0] 
s 0.072068610 _95_ MAC  --- 6 message 90 [0 ffffffff 5f 800] [energy 999.945545 ei 0.052 es 0.000 et 0.000 er 0.003] ------- [95:255 -1:255 32 0] 
N -t 0.072069 -n 85 -e 999.934400
N -t 0.072069 -n 94 -e 999.934400
N -t 0.072069 -n 96 -e 999.934418
N -t 0.072069 -n 84 -e 999.934400
N -t 0.072069 -n 86 -e 999.934418
N -t 0.072069 -n 75 -e 999.934400
N -t 0.072069 -n 93 -e 999.934400
N -t 0.072069 -n 97 -e 999.934436
N -t 0.072069 -n 74 -e 999.934400
N -t 0.072069 -n 83 -e 999.934400
N -t 0.072069 -n 76 -e 999.934418
N -t 0.072069 -n 87 -e 999.934418
N -t 0.072070 -n 73 -e 999.934399
N -t 0.072070 -n 77 -e 999.934417
N -t 0.072070 -n 65 -e 999.934417
N -t 0.072070 -n 92 -e 999.934435
N -t 0.072070 -n 98 -e 999.934075
N -t 0.072070 -n 64 -e 999.934399
N -t 0.072070 -n 82 -e 999.934417
N -t 0.072070 -n 66 -e 999.934417
N -t 0.072070 -n 88 -e 999.934435
N -t 0.072070 -n 63 -e 999.934417
N -t 0.072070 -n 72 -e 999.934417
N -t 0.072070 -n 67 -e 999.934417
N -t 0.072070 -n 78 -e 999.934417
N -t 0.072070 -n 55 -e 999.934417
N -t 0.072070 -n 91 -e 999.934453
N -t 0.072070 -n 99 -e 999.934435
N -t 0.072070 -n 54 -e 999.934417
N -t 0.072070 -n 81 -e 999.934435
N -t 0.072070 -n 56 -e 999.934057
N -t 0.072070 -n 89 -e 999.934435
N -t 0.072070 -n 62 -e 999.934417
N -t 0.072070 -n 68 -e 999.934417
N -t 0.072070 -n 53 -e 999.934399
N -t 0.072070 -n 71 -e 999.934417
N -t 0.072070 -n 57 -e 999.934417
N -t 0.072070 -n 79 -e 999.934435
N -t 0.072070 -n 45 -e 999.934417
N -t 0.072070 -n 52 -e 999.934392
N -t 0.072070 -n 61 -e 999.934417
N -t 0.072070 -n 90 -e 999.934093
N -t 0.072070 -n 58 -e 999.934417
N -t 0.072070 -n 69 -e 999.934417
N -t 0.072070 -n 44 -e 999.934057
N -t 0.072070 -n 80 -e 999.934453
N -t 0.072070 -n 46 -e 999.934417
N -t 0.072070 -n 43 -e 999.934399
N -t 0.072070 -n 70 -e 999.934435
N -t 0.072070 -n 47 -e 999.934417
r 0.072788943 _85_ MAC  --- 6 message 32 [0 ffffffff 5f 800] [energy 999.934400 ei 0.062 es 0.000 et 0.000 er 0.003] ------- [95:255 -1:255 32 0] 
r 0.072788943 _94_ MAC  --- 6 message 32 [0 ffffffff 5f 800] [energy 999.934400 ei 0.062 es 0.000 et 0.000 er 0.003] ------- [95:255 -1:255 32 0] 
r 0.072788943 _96_ MAC  --- 6 message 32 [0 ffffffff 5f 800] [energy 999.934418 ei 0.063 es 0.000 et 0.000 er 0.003] ------- [95:255 -1:255 32 0] 
r 0.072789081 _84_ MAC  --- 6 message 32 [0 ffffffff 5f 800] [energy 999.934400 ei 0.062 es 0.000 et 0.000 er 0.003] ------- [95:255 -1:255 32 0] 
r 0.072789081 _86_ MAC  --- 6 message 32 [0 ffffffff 5f 800] [energy 999.934418 ei 0.063 es 0.000 et 0.000 er 0.003] ------- [95:255 -1:255 32 0] 
r 0.072789276 _75_ MAC  --- 6 message 32 [0 ffffffff 5f 800] [energy 999.934400 ei 0.062 es 0.000 et 0.000 er 0.003] ------- [95:255 -1:255 32 0] 
r 0.072789276 _93_ MAC  --- 6 message 32 [0 ffffffff 5f 800] [energy 999.934400 ei 0.062 es 0.000 et 0.000 er 0.003] ------- [95:255 -1:255 32 0] 
r 0.072789276 _97_ MAC  --- 6 message 32 [0 ffffffff 5f 800] [energy 999.934436 ei 0.064 es 0.000 et 0.000 er 0.002] ------- [95:255 -1:255 32 0] 
r 0.072789355 _74_ MAC  --- 6 message 32 [0 ffffffff 5f 800] [energy 999.934400 ei 0.062 es 0.000 et 0.000 er 0.003] ------- [95:255 -1:255 32 0] 
r 0.072789355 _83_ MAC  --- 6 message 32 [0 ffffffff 5f 800] [energy 999.934400 ei 0.062 es 0.000 et 0.000 er 0.003] ------- [95:255 -1:255 32 0] 
r 0.072789355 _76_ MAC  --- 6 message 32 [0 ffffffff 5f 800] [energy 999.934418 ei 0.063 es 0.000 et 0.000 er 0.003] ------- [95:255 -1:255 32 0] 
r 0.072789355 _87_ MAC  --- 6 message 32 [0 ffffffff 5f 800] [energy 999.934418 ei 0.063 es 0.000 et 0.000 er 0.003] ------- [95:255 -1:255 32 0] 
s 0.086549006 _13_ MAC  --- 7 message 90 [0 ffffffff d 800] [energy 999.945544 ei 0.052 es 0.000 et 0.000 er 0.003] ------- [13:255 -1:255 32 0] 
N -t 0.086549 -n 3 -e 999.921386
N -t 0.086549 -n 12 -e 999.921386
N -t 0.086549 -n 23 -e 999.921368
N -t 0.086549 -n 14 -e 999.921368
N -t 0.086549 -n 22 -e 999.921367
N -t 0.086549 -n 2 -e 999.921025
N -t 0.086549 -n 4 -e 999.921367
N -t 0.086549 -n 24 -e 999.921367
N -t 0.086550 -n 11 -e 999.921385
N -t 0.086550 -n 33 -e 999.921367
N -t 0.086550 -n 15 -e 999.921367
N -t 0.086550 -n 32 -e 999.921367
N -t 0.086550 -n 21 -e 999.921385
N -t 0.086550 -n 1 -e 999.921385
N -t 0.086550 -n 34 -e 999.921367
N -t 0.086550 -n 5 -e 999.921367
N -t 0.086550 -n 25 -e 999.921367
N -t 0.086550 -n 31 -e 999.921367
N -t 0.086550 -n 35 -e 999.921385
N -t 0.086550 -n 10 -e 999.921385
N -t 0.086550 -n 43 -e 999.921349
N -t 0.086550 -n 16 -e 999.921385
N -t 0.086550 -n 42 -e 999.921360
N -t 0.086550 -n 20 -e 999.921385
N -t 0.086550 -n 0 -e 999.921043
N -t 0.086550 -n 44 -e 999.921007
N -t 0.086550 -n 6 -e 999.921385
N -t 0.086550 -n 26 -e 999.921385
N -t 0.086550 -n 41 -e 999.921360
N -t 0.086550 -n 30 -e 999.921385
N -t 0.086550 -n 45 -e 999.921367
N -t 0.086550 -n 36 -e 999.921385
N -t 0.086550 -n 53 -e 999.921349
N -t 0.086550 -n 17 -e 999.921385
N -t 0.086550 -n 52 -e 999.921342
N -t 0.086550 -n 54 -e 999.921367
N -t 0.086550 -n 7 -e 999.921385
N -t 0.086550 -n 27 -e 999.921385
N -t 0.086550 -n 40 -e 999.921378
N -t 0.086550 -n 46 -e 999.921367
N -t 0.086550 -n 51 -e 999.921360
N -t 0.086550 -n 55 -e 999.921367
N -t 0.086550 -n 37 -e 999.921403
N -t 0.086551 -n 50 -e 999.921378
N -t 0.086551 -n 63 -e 999.921366
N -t 0.086551 -n 56 -e 999.921006
N -t 0.086551 -n 47 -e 999.921366
N -t 0.086551 -n 18 -e 999.921402
N -t 0.086551 -n 62 -e 999.921366
N -t 0.086551 -n 64 -e 999.921348
N -t 0.086551 -n 8 -e 999.921420
N -t 0.086551 -n 28 -e 999.921402
N -t 0.086551 -n 61 -e 999.921366
N -t 0.086551 -n 65 -e 999.921366
N -t 0.086551 -n 38 -e 999.921402
r 0.087269339 _3_ MAC  --- 7 message 32 [0 ffffffff d 800] [energy 999.921386 ei 0.076 es 0.000 et 0.000 er 0.003] ------- [13:255 -1:255 32 0] 
r 0.087269339 _12_ MAC  --- 7 message 32 [0 ffffffff d 800] [energy 999.921386 ei 0.076 es 0.000 et 0.000 er 0.003] ------- [13:255 -1:255 32 0] 
r 0.087269339 _23_ MAC  --- 7 message 32 [0 ffffffff d 800] [energy 999.921368 ei 0.075 es 0.000 et 0.000 er 0.003] ------- [13:255 -1:255 32 0] 
r 0.087269339 _14_ MAC  --- 7 message 32 [0 ffffffff d 800] [energy 999.921368 ei 0.075 es 0.000 et 0.000 er 0.003] ------- [13:255 -1:255 32 0] 
r 0.087269477 _22_ MAC  --- 7 message 32 [0 ffffffff d 800] [energy 999.921367 ei 0.075 es 0.000 et 0.000 er 0.003] ------- [13:255 -1:255 32 0] 
r 0.087269477 _2_ MAC  --- 7 message 32 [0 ffffffff d 800] [energy 999.921025 ei 0.076 es 0.000 et 0.001 er 0.002] ------- [13:255 -1:255 32 0] 
r 0.087269477 _4_ MAC  --- 7 message 32 [0 ffffffff d 800] [energy 999.921367 ei 0.075 es 0.000 et 0.000 er 0.003] ------- [13:255 -1:255 32 0] 
r 0.087269477 _24_ MAC  --- 7 message 32 [0 ffffffff d 800] [energy 999.921367 ei 0.075 es 0.000 et 0.000 er 0.003] ------- [13:255 -1:255 32 0] 
r 0.087269672 _11_ MAC  --- 7 message 32 [0 ffffffff d 800] [energy 999.921385 ei 0.076 es 0.000 et 0.000 er 0.003] ------- [13:255 -1:255 32 0] 
r 0.087269672 _33_ MAC  --- 7 message 32 [0 ffffffff d 800] [energy 999.921367 ei 0.075 es 0.000 et 0.000 er 0.003] ------- [13:255 -1:255 32 0] 
r 0.087269672 _15_ MAC  --- 7 message 32 [0 ffffffff d 800] [energy 999.921367 ei 0.075 es 0.000 et 0.000 er 0.003] ------- [13:255 -1:255 32 0] 
r 0.087269751 _32_ MAC  --- 7 message 32 [0 ffffffff d 800] [energy 999.921367 ei 0.075 es 0.000 et 0.000 er 0.003] ------- [13:255 -1:255 32 0] 
r 0.087269751 _21_ MAC  --- 7 message 32 [0 ffffffff d 800] [energy 999.921385 ei 0.076 es 0.000 et 0.000 er 0.003] ------- [13:255 -1:255 32 0] 
r 0.087269751 _1_ MAC  --- 7 message 32 [0 ffffffff d 800] [energy 999.921385 ei 0.076 es 0.000 et 0.000 er 0.003] ------- [13:255 -1:255 32 0] 
r 0.087269751 _34_ MAC  --- 7 message 32 [0 ffffffff d 800] [energy 999.921367 ei 0.075 es 0.000 et 0.000 er 0.003] ------- [13:255 -1:255 32 0] 