r 0.008681220 _5_ MAC  --- 0 message 32 [0 ffffffff 0 800] [energy 999.992169 ei 0.007 es 0.000 et 0.000 er 0.001] ------- [0:255 -1:255 32 0] 
